
     Program PHONON v.6.4.1 starts on 22Nov2019 at 20:31:16 

     This program is part of the open-source Quantum ESPRESSO suite
     for quantum simulation of materials; please cite
         "P. Giannozzi et al., J. Phys.:Condens. Matter 21 395502 (2009);
         "P. Giannozzi et al., J. Phys.:Condens. Matter 29 465901 (2017);
          URL http://www.quantum-espresso.org", 
     in publications or presentations arising from this work. More details at
     http://www.quantum-espresso.org/quote

     Parallel version (MPI & OpenMP), running on      29 processor cores
     Number of MPI processes:                29
     Threads/MPI process:                     1

     MPI processes distributed on     1 nodes
     K-points division:     npool     =      29

     Reading xml data from directory:

     ./pwscf.save/

     IMPORTANT: XC functional enforced from input :
     Exchange-correlation= PBE
                           (   1   4   3   4   0   0   0)
     Any further DFT definition will be discarded
     Please, verify this is what you really want


     G-vector sticks info
     --------------------
     sticks:   dense  smooth     PW     G-vecs:    dense   smooth      PW
     Sum         511     511    163                 7799     7799    1411


     Check: negative core charge=   -0.000002
     Reading collected, re-writing distributed wavefunctions


     Dynamical matrices for ( 4, 4, 4)  uniform grid of q-points
     With a half shift
     (  10 q-points):
       N         xq(1)         xq(2)         xq(3) 
       1   0.088388348   0.088388348   0.088388348
       2   0.265165043   0.265165043  -0.088388348
       3  -0.265165043  -0.265165043   0.441941738
       4  -0.088388348  -0.088388348   0.265165043
       5   0.441941738   0.088388348   0.088388348
       6  -0.088388348  -0.441941738   0.618718434
       7   0.088388348  -0.265165043   0.441941738
       8  -0.618718434   0.088388348   0.088388348
       9   0.265165043   0.265165043   0.265165043
      10  -0.265165043  -0.265165043   0.795495129
     Because shifted q grid is used, q2r will not work !

     Calculation of q =    0.0883883   0.0883883   0.0883883

     Subspace diagonalization in iterative solution of the eigenvalue problem:
     a serial algorithm will be used

     [opt_tetra]  Optimized tetrahedron method is used.

     G-vector sticks info
     --------------------
     sticks:   dense  smooth     PW     G-vecs:    dense   smooth      PW
     Sum         511     511    163                 7799     7799    1459


     Title: 
     Electron-phonon                                                            


     bravais-lattice index     =            0
     lattice parameter (alat)  =       5.3778  a.u.
     unit-cell volume          =     109.9740 (a.u.)^3
     number of atoms/cell      =            1
     number of atomic types    =            1
     number of electrons       =         3.00
     number of Kohn-Sham states=            6
     kinetic-energy cutoff     =      65.0000  Ry
     charge density cutoff     =     260.0000  Ry
     Exchange-correlation= PBE
                           (   1   4   3   4   0   0   0)

     celldm(1)=   5.377763  celldm(2)=   0.000000  celldm(3)=   0.000000
     celldm(4)=   0.000000  celldm(5)=   0.000000  celldm(6)=   0.000000

     crystal axes: (cart. coord. in units of alat)
               a(1) = (   0.000000   0.707107   0.707107 )  
               a(2) = (   0.707107   0.000000   0.707107 )  
               a(3) = (   0.707107   0.707107   0.000000 )  

     reciprocal axes: (cart. coord. in units 2 pi/alat)
               b(1) = ( -0.707107  0.707107  0.707107 )  
               b(2) = (  0.707107 -0.707107  0.707107 )  
               b(3) = (  0.707107  0.707107 -0.707107 )  


     PseudoPot. # 1 for Al read from file:
     ./Al.pbe-n-nc.UPF
     MD5 check sum: 670bd543589c27b6508fb047b2733a83
     Pseudo is Norm-conserving + core correction, Zval =  3.0
     Generated using "atomic" code by A. Dal Corso v.5.0.99 svn rev. 10869
     Using radial grid of 1135 points,  2 beta functions with: 
                l(1) =   0
                l(2) =   1

     atomic species   valence    mass     pseudopotential
        Al             3.00    26.98154     Al( 1.00)

     48 Sym. Ops., with inversion, found



   Cartesian axes

     site n.     atom                  positions (alat units)
         1           Al  tau(   1) = (   0.0000000   0.0000000   0.0000000  )

     number of k points=  1632 (tetrahedron method)

     Number of k-points >= 100: set verbosity='high' to print them.

     Dense  grid:     7799 G-vectors     FFT dimensions: (  27,  27,  27)

     Estimated max dynamical RAM per process >       3.41 MB

     Estimated total dynamical RAM >      98.77 MB

     Check: negative core charge=   -0.000002

     The potential is recalculated from file :
     ./_ph0/pwscf.q_1/pwscf.save/charge-density

     Starting wfcs are    4 atomic +    2 random wfcs

     Band Structure Calculation
     Davidson diagonalization with overlap

     ethr =  3.33E-10,  avg # of iterations = 15.1

     total cpu time spent up to now is       10.7 secs

     End of band structure calculation

     Number of k-points >= 100: set verbosity='high' to print the bands.

     the Fermi energy is     8.0431 ev

     Writing output data file ./_ph0/pwscf.q_1/pwscf.save/
 
     [dfpt_tetra]  Dos(E_F)[/Ry] :   0.5411978E+01

     Electron-phonon                                                            

     bravais-lattice index     =            0
     lattice parameter (alat)  =       5.3778  a.u.
     unit-cell volume          =     109.9740 (a.u.)^3
     number of atoms/cell      =            1
     number of atomic types    =            1
     kinetic-energy cut-off    =      65.0000  Ry
     charge density cut-off    =     260.0000  Ry
     convergence threshold     =      1.0E-12
     beta                      =       0.7000
     number of iterations used =            4
     Exchange-correlation= PBE
                           (   1   4   3   4   0   0   0)


     celldm(1)=    5.37776  celldm(2)=    0.00000  celldm(3)=    0.00000
     celldm(4)=    0.00000  celldm(5)=    0.00000  celldm(6)=    0.00000

     crystal axes: (cart. coord. in units of alat)
               a(1) = (  0.0000  0.7071  0.7071 )  
               a(2) = (  0.7071  0.0000  0.7071 )  
               a(3) = (  0.7071  0.7071  0.0000 )  

     reciprocal axes: (cart. coord. in units 2 pi/alat)
               b(1) = ( -0.7071  0.7071  0.7071 )  
               b(2) = (  0.7071 -0.7071  0.7071 )  
               b(3) = (  0.7071  0.7071 -0.7071 )  


     Atoms inside the unit cell: 

     Cartesian axes

     site n.  atom      mass           positions (alat units)
        1     Al  26.9815   tau(    1) = (    0.00000    0.00000    0.00000  )

     Computing dynamical matrix for 
                    q = (   0.0883883   0.0883883   0.0883883 )

      6 Sym.Ops. (no q -> -q+G )


     G cutoff =  190.4658  (   7799 G-vectors)     FFT grid: ( 27, 27, 27)
     number of k points=  1632

     PseudoPot. # 1 for Al read from file:
     ./Al.pbe-n-nc.UPF
     MD5 check sum: 670bd543589c27b6508fb047b2733a83
     Pseudo is Norm-conserving + core correction, Zval =  3.0
     Generated using "atomic" code by A. Dal Corso v.5.0.99 svn rev. 10869
     Using radial grid of 1135 points,  2 beta functions with: 
                l(1) =   0
                l(2) =   1


     Atomic displacements:
     There are   2 irreducible representations

     Representation     1      1 modes -  To be done

     Representation     2      2 modes -  To be done


     PHONON       :     10.26s CPU     11.97s WALL

     Reading dVscf from file dv
     Reading dynamics matrix from file matdyn1

     [elph_tetra]   Lowest band which contains FS :          2
     [elph_tetra]  Highest band which contains FS :          3
     [elph_tetra]    # of bands which contains FS :          2

     Tetrahedron method
     DOS =  2.705989 states/spin/Ry/Unit Cell at Ef=  8.043061 eV
     double delta at Ef = 11.662216
     lambda(    1)=  0.2134   gamma=    2.24 GHz
     lambda(    2)=  0.2134   gamma=    2.24 GHz
     lambda(    3)=  0.1565   gamma=    5.59 GHz

     Number of q in the star =    8
     List of q in the star:
          1   0.088388348   0.088388348   0.088388348
          2   0.088388348  -0.088388348   0.088388348
          3  -0.088388348   0.088388348   0.088388348
          4  -0.088388348  -0.088388348  -0.088388348
          5   0.088388348   0.088388348  -0.088388348
          6  -0.088388348  -0.088388348   0.088388348
          7  -0.088388348   0.088388348  -0.088388348
          8   0.088388348  -0.088388348  -0.088388348

     Calculation of q =    0.2651650   0.2651650  -0.0883883
     [opt_tetra]  Optimized tetrahedron method is used.

     G-vector sticks info
     --------------------
     sticks:   dense  smooth     PW     G-vecs:    dense   smooth      PW
     Sum         511     511    187                 7799     7799    1639


     Title: 
     Electron-phonon                                                            


     bravais-lattice index     =            0
     lattice parameter (alat)  =       5.3778  a.u.
     unit-cell volume          =     109.9740 (a.u.)^3
     number of atoms/cell      =            1
     number of atomic types    =            1
     number of electrons       =         3.00
     number of Kohn-Sham states=            6
     kinetic-energy cutoff     =      65.0000  Ry
     charge density cutoff     =     260.0000  Ry
     Exchange-correlation= PBE
                           (   1   4   3   4   0   0   0)

     celldm(1)=   5.377763  celldm(2)=   0.000000  celldm(3)=   0.000000
     celldm(4)=   0.000000  celldm(5)=   0.000000  celldm(6)=   0.000000

     crystal axes: (cart. coord. in units of alat)
               a(1) = (   0.000000   0.707107   0.707107 )  
               a(2) = (   0.707107   0.000000   0.707107 )  
               a(3) = (   0.707107   0.707107   0.000000 )  

     reciprocal axes: (cart. coord. in units 2 pi/alat)
               b(1) = ( -0.707107  0.707107  0.707107 )  
               b(2) = (  0.707107 -0.707107  0.707107 )  
               b(3) = (  0.707107  0.707107 -0.707107 )  


     PseudoPot. # 1 for Al read from file:
     ./Al.pbe-n-nc.UPF
     MD5 check sum: 670bd543589c27b6508fb047b2733a83
     Pseudo is Norm-conserving + core correction, Zval =  3.0
     Generated using "atomic" code by A. Dal Corso v.5.0.99 svn rev. 10869
     Using radial grid of 1135 points,  2 beta functions with: 
                l(1) =   0
                l(2) =   1

     atomic species   valence    mass     pseudopotential
        Al             3.00    26.98154     Al( 1.00)

     48 Sym. Ops., with inversion, found



   Cartesian axes

     site n.     atom                  positions (alat units)
         1           Al  tau(   1) = (   0.0000000   0.0000000   0.0000000  )

     number of k points=  4352 (tetrahedron method)

     Number of k-points >= 100: set verbosity='high' to print them.

     Dense  grid:     7799 G-vectors     FFT dimensions: (  27,  27,  27)

     Estimated max dynamical RAM per process >       3.41 MB

     Estimated total dynamical RAM >      98.82 MB

     Check: negative core charge=   -0.000002

     The potential is recalculated from file :
     ./_ph0/pwscf.q_2/pwscf.save/charge-density

     Starting wfcs are    4 atomic +    2 random wfcs

     Band Structure Calculation
     Davidson diagonalization with overlap

     ethr =  3.33E-10,  avg # of iterations = 15.0

     total cpu time spent up to now is       33.1 secs

     End of band structure calculation

     Number of k-points >= 100: set verbosity='high' to print the bands.

     the Fermi energy is     8.0431 ev

     Writing output data file ./_ph0/pwscf.q_2/pwscf.save/
 
     [dfpt_tetra]  Dos(E_F)[/Ry] :   0.5411978E+01

     Electron-phonon                                                            

     bravais-lattice index     =            0
     lattice parameter (alat)  =       5.3778  a.u.
     unit-cell volume          =     109.9740 (a.u.)^3
     number of atoms/cell      =            1
     number of atomic types    =            1
     kinetic-energy cut-off    =      65.0000  Ry
     charge density cut-off    =     260.0000  Ry
     convergence threshold     =      1.0E-12
     beta                      =       0.7000
     number of iterations used =            4
     Exchange-correlation= PBE
                           (   1   4   3   4   0   0   0)


     celldm(1)=    5.37776  celldm(2)=    0.00000  celldm(3)=    0.00000
     celldm(4)=    0.00000  celldm(5)=    0.00000  celldm(6)=    0.00000

     crystal axes: (cart. coord. in units of alat)
               a(1) = (  0.0000  0.7071  0.7071 )  
               a(2) = (  0.7071  0.0000  0.7071 )  
               a(3) = (  0.7071  0.7071  0.0000 )  

     reciprocal axes: (cart. coord. in units 2 pi/alat)
               b(1) = ( -0.7071  0.7071  0.7071 )  
               b(2) = (  0.7071 -0.7071  0.7071 )  
               b(3) = (  0.7071  0.7071 -0.7071 )  


     Atoms inside the unit cell: 

     Cartesian axes

     site n.  atom      mass           positions (alat units)
        1     Al  26.9815   tau(    1) = (    0.00000    0.00000    0.00000  )

     Computing dynamical matrix for 
                    q = (   0.2651650   0.2651650  -0.0883883 )

      2 Sym.Ops. (no q -> -q+G )


     G cutoff =  190.4658  (   7799 G-vectors)     FFT grid: ( 27, 27, 27)
     number of k points=  4352

     PseudoPot. # 1 for Al read from file:
     ./Al.pbe-n-nc.UPF
     MD5 check sum: 670bd543589c27b6508fb047b2733a83
     Pseudo is Norm-conserving + core correction, Zval =  3.0
     Generated using "atomic" code by A. Dal Corso v.5.0.99 svn rev. 10869
     Using radial grid of 1135 points,  2 beta functions with: 
                l(1) =   0
                l(2) =   1


     Atomic displacements:
     There are   3 irreducible representations

     Representation     1      1 modes -  To be done

     Representation     2      1 modes -  To be done

     Representation     3      1 modes -  To be done


     PHONON       :     30.88s CPU     35.86s WALL

     Reading dVscf from file dv
     Reading dynamics matrix from file matdyn2

     [elph_tetra]   Lowest band which contains FS :          2
     [elph_tetra]  Highest band which contains FS :          3
     [elph_tetra]    # of bands which contains FS :          2

     Tetrahedron method
     DOS =  2.705989 states/spin/Ry/Unit Cell at Ef=  8.043061 eV
     double delta at Ef = 15.198884
     lambda(    1)=  0.0230   gamma=    0.96 GHz
     lambda(    2)=  0.1277   gamma=    7.47 GHz
     lambda(    3)=  0.2307   gamma=   35.79 GHz

     Number of q in the star =   24
     List of q in the star:
          1   0.265165043   0.265165043  -0.088388348
          2  -0.088388348   0.265165043   0.265165043
          3   0.265165043  -0.088388348   0.265165043
          4   0.265165043  -0.265165043  -0.088388348
          5  -0.265165043   0.265165043  -0.088388348
          6  -0.088388348  -0.265165043   0.265165043
          7   0.088388348  -0.265165043  -0.265165043
          8  -0.088388348   0.265165043  -0.265165043
          9   0.088388348   0.265165043   0.265165043
         10  -0.265165043  -0.088388348   0.265165043
         11  -0.265165043   0.088388348  -0.265165043
         12   0.265165043  -0.088388348  -0.265165043
         13   0.265165043   0.088388348   0.265165043
         14  -0.265165043  -0.265165043  -0.088388348
         15  -0.265165043  -0.088388348  -0.265165043
         16   0.265165043   0.088388348  -0.265165043
         17  -0.265165043   0.088388348   0.265165043
         18  -0.265165043   0.265165043   0.088388348
         19  -0.088388348  -0.265165043  -0.265165043
         20   0.088388348  -0.265165043   0.265165043
         21   0.088388348   0.265165043  -0.265165043
         22  -0.265165043  -0.265165043   0.088388348
         23   0.265165043   0.265165043   0.088388348
         24   0.265165043  -0.265165043   0.088388348

     Calculation of q =   -0.2651650  -0.2651650   0.4419417
     [opt_tetra]  Optimized tetrahedron method is used.

     G-vector sticks info
     --------------------
     sticks:   dense  smooth     PW     G-vecs:    dense   smooth      PW
     Sum         511     511    199                 7799     7799    1807


     Title: 
     Electron-phonon                                                            


     bravais-lattice index     =            0
     lattice parameter (alat)  =       5.3778  a.u.
     unit-cell volume          =     109.9740 (a.u.)^3
     number of atoms/cell      =            1
     number of atomic types    =            1
     number of electrons       =         3.00
     number of Kohn-Sham states=            6
     kinetic-energy cutoff     =      65.0000  Ry
     charge density cutoff     =     260.0000  Ry
     Exchange-correlation= PBE
                           (   1   4   3   4   0   0   0)

     celldm(1)=   5.377763  celldm(2)=   0.000000  celldm(3)=   0.000000
     celldm(4)=   0.000000  celldm(5)=   0.000000  celldm(6)=   0.000000

     crystal axes: (cart. coord. in units of alat)
               a(1) = (   0.000000   0.707107   0.707107 )  
               a(2) = (   0.707107   0.000000   0.707107 )  
               a(3) = (   0.707107   0.707107   0.000000 )  

     reciprocal axes: (cart. coord. in units 2 pi/alat)
               b(1) = ( -0.707107  0.707107  0.707107 )  
               b(2) = (  0.707107 -0.707107  0.707107 )  
               b(3) = (  0.707107  0.707107 -0.707107 )  


     PseudoPot. # 1 for Al read from file:
     ./Al.pbe-n-nc.UPF
     MD5 check sum: 670bd543589c27b6508fb047b2733a83
     Pseudo is Norm-conserving + core correction, Zval =  3.0
     Generated using "atomic" code by A. Dal Corso v.5.0.99 svn rev. 10869
     Using radial grid of 1135 points,  2 beta functions with: 
                l(1) =   0
                l(2) =   1

     atomic species   valence    mass     pseudopotential
        Al             3.00    26.98154     Al( 1.00)

     48 Sym. Ops., with inversion, found



   Cartesian axes

     site n.     atom                  positions (alat units)
         1           Al  tau(   1) = (   0.0000000   0.0000000   0.0000000  )

     number of k points=  4352 (tetrahedron method)

     Number of k-points >= 100: set verbosity='high' to print them.

     Dense  grid:     7799 G-vectors     FFT dimensions: (  27,  27,  27)

     Estimated max dynamical RAM per process >       3.41 MB

     Estimated total dynamical RAM >      98.86 MB

     Check: negative core charge=   -0.000002

     The potential is recalculated from file :
     ./_ph0/pwscf.q_3/pwscf.save/charge-density

     Starting wfcs are    4 atomic +    2 random wfcs

     Band Structure Calculation
     Davidson diagonalization with overlap

     ethr =  3.33E-10,  avg # of iterations = 15.0

     total cpu time spent up to now is       56.1 secs

     End of band structure calculation

     Number of k-points >= 100: set verbosity='high' to print the bands.

     the Fermi energy is     8.0431 ev

     Writing output data file ./_ph0/pwscf.q_3/pwscf.save/
 
     [dfpt_tetra]  Dos(E_F)[/Ry] :   0.5411978E+01

     Electron-phonon                                                            

     bravais-lattice index     =            0
     lattice parameter (alat)  =       5.3778  a.u.
     unit-cell volume          =     109.9740 (a.u.)^3
     number of atoms/cell      =            1
     number of atomic types    =            1
     kinetic-energy cut-off    =      65.0000  Ry
     charge density cut-off    =     260.0000  Ry
     convergence threshold     =      1.0E-12
     beta                      =       0.7000
     number of iterations used =            4
     Exchange-correlation= PBE
                           (   1   4   3   4   0   0   0)


     celldm(1)=    5.37776  celldm(2)=    0.00000  celldm(3)=    0.00000
     celldm(4)=    0.00000  celldm(5)=    0.00000  celldm(6)=    0.00000

     crystal axes: (cart. coord. in units of alat)
               a(1) = (  0.0000  0.7071  0.7071 )  
               a(2) = (  0.7071  0.0000  0.7071 )  
               a(3) = (  0.7071  0.7071  0.0000 )  

     reciprocal axes: (cart. coord. in units 2 pi/alat)
               b(1) = ( -0.7071  0.7071  0.7071 )  
               b(2) = (  0.7071 -0.7071  0.7071 )  
               b(3) = (  0.7071  0.7071 -0.7071 )  


     Atoms inside the unit cell: 

     Cartesian axes

     site n.  atom      mass           positions (alat units)
        1     Al  26.9815   tau(    1) = (    0.00000    0.00000    0.00000  )

     Computing dynamical matrix for 
                    q = (  -0.2651650  -0.2651650   0.4419417 )

      2 Sym.Ops. (no q -> -q+G )


     G cutoff =  190.4658  (   7799 G-vectors)     FFT grid: ( 27, 27, 27)
     number of k points=  4352

     PseudoPot. # 1 for Al read from file:
     ./Al.pbe-n-nc.UPF
     MD5 check sum: 670bd543589c27b6508fb047b2733a83
     Pseudo is Norm-conserving + core correction, Zval =  3.0
     Generated using "atomic" code by A. Dal Corso v.5.0.99 svn rev. 10869
     Using radial grid of 1135 points,  2 beta functions with: 
                l(1) =   0
                l(2) =   1


     Atomic displacements:
     There are   3 irreducible representations

     Representation     1      1 modes -  To be done

     Representation     2      1 modes -  To be done

     Representation     3      1 modes -  To be done


     PHONON       :     53.26s CPU   1m 1.42s WALL

     Reading dVscf from file dv
     Reading dynamics matrix from file matdyn3

     [elph_tetra]   Lowest band which contains FS :          2
     [elph_tetra]  Highest band which contains FS :          3
     [elph_tetra]    # of bands which contains FS :          2

     Tetrahedron method
     DOS =  2.705989 states/spin/Ry/Unit Cell at Ef=  8.043061 eV
     double delta at Ef = 16.096018
     lambda(    1)=  0.0922   gamma=    5.03 GHz
     lambda(    2)=  0.0890   gamma=    6.86 GHz
     lambda(    3)=  0.1841   gamma=   42.44 GHz

     Number of q in the star =   24
     List of q in the star:
          1  -0.265165043  -0.265165043   0.441941738
          2   0.441941738  -0.265165043  -0.265165043
          3  -0.265165043   0.441941738  -0.265165043
          4  -0.265165043   0.265165043   0.441941738
          5   0.265165043  -0.265165043   0.441941738
          6   0.441941738   0.265165043  -0.265165043
          7  -0.441941738   0.265165043   0.265165043
          8   0.441941738  -0.265165043   0.265165043
          9  -0.441941738  -0.265165043  -0.265165043
         10   0.265165043   0.441941738  -0.265165043
         11   0.265165043  -0.441941738   0.265165043
         12  -0.265165043   0.441941738   0.265165043
         13  -0.265165043  -0.441941738  -0.265165043
         14   0.265165043   0.265165043   0.441941738
         15   0.265165043   0.441941738   0.265165043
         16  -0.265165043  -0.441941738   0.265165043
         17   0.265165043  -0.441941738  -0.265165043
         18   0.265165043  -0.265165043  -0.441941738
         19   0.441941738   0.265165043   0.265165043
         20  -0.441941738   0.265165043  -0.265165043
         21  -0.441941738  -0.265165043   0.265165043
         22   0.265165043   0.265165043  -0.441941738
         23  -0.265165043  -0.265165043  -0.441941738
         24  -0.265165043   0.265165043  -0.441941738

     Calculation of q =   -0.0883883  -0.0883883   0.2651650
     [opt_tetra]  Optimized tetrahedron method is used.

     G-vector sticks info
     --------------------
     sticks:   dense  smooth     PW     G-vecs:    dense   smooth      PW
     Sum         511     511    187                 7799     7799    1591


     Title: 
     Electron-phonon                                                            


     bravais-lattice index     =            0
     lattice parameter (alat)  =       5.3778  a.u.
     unit-cell volume          =     109.9740 (a.u.)^3
     number of atoms/cell      =            1
     number of atomic types    =            1
     number of electrons       =         3.00
     number of Kohn-Sham states=            6
     kinetic-energy cutoff     =      65.0000  Ry
     charge density cutoff     =     260.0000  Ry
     Exchange-correlation= PBE
                           (   1   4   3   4   0   0   0)

     celldm(1)=   5.377763  celldm(2)=   0.000000  celldm(3)=   0.000000
     celldm(4)=   0.000000  celldm(5)=   0.000000  celldm(6)=   0.000000

     crystal axes: (cart. coord. in units of alat)
               a(1) = (   0.000000   0.707107   0.707107 )  
               a(2) = (   0.707107   0.000000   0.707107 )  
               a(3) = (   0.707107   0.707107   0.000000 )  

     reciprocal axes: (cart. coord. in units 2 pi/alat)
               b(1) = ( -0.707107  0.707107  0.707107 )  
               b(2) = (  0.707107 -0.707107  0.707107 )  
               b(3) = (  0.707107  0.707107 -0.707107 )  


     PseudoPot. # 1 for Al read from file:
     ./Al.pbe-n-nc.UPF
     MD5 check sum: 670bd543589c27b6508fb047b2733a83
     Pseudo is Norm-conserving + core correction, Zval =  3.0
     Generated using "atomic" code by A. Dal Corso v.5.0.99 svn rev. 10869
     Using radial grid of 1135 points,  2 beta functions with: 
                l(1) =   0
                l(2) =   1

     atomic species   valence    mass     pseudopotential
        Al             3.00    26.98154     Al( 1.00)

     48 Sym. Ops., with inversion, found



   Cartesian axes

     site n.     atom                  positions (alat units)
         1           Al  tau(   1) = (   0.0000000   0.0000000   0.0000000  )

     number of k points=  4352 (tetrahedron method)

     Number of k-points >= 100: set verbosity='high' to print them.

     Dense  grid:     7799 G-vectors     FFT dimensions: (  27,  27,  27)

     Estimated max dynamical RAM per process >       3.41 MB

     Estimated total dynamical RAM >      98.80 MB

     Check: negative core charge=   -0.000002

     The potential is recalculated from file :
     ./_ph0/pwscf.q_4/pwscf.save/charge-density

     Starting wfcs are    4 atomic +    2 random wfcs

     Band Structure Calculation
     Davidson diagonalization with overlap

     ethr =  3.33E-10,  avg # of iterations = 15.0

     total cpu time spent up to now is       78.1 secs

     End of band structure calculation

     Number of k-points >= 100: set verbosity='high' to print the bands.

     the Fermi energy is     8.0431 ev

     Writing output data file ./_ph0/pwscf.q_4/pwscf.save/
 
     [dfpt_tetra]  Dos(E_F)[/Ry] :   0.5411978E+01

     Electron-phonon                                                            

     bravais-lattice index     =            0
     lattice parameter (alat)  =       5.3778  a.u.
     unit-cell volume          =     109.9740 (a.u.)^3
     number of atoms/cell      =            1
     number of atomic types    =            1
     kinetic-energy cut-off    =      65.0000  Ry
     charge density cut-off    =     260.0000  Ry
     convergence threshold     =      1.0E-12
     beta                      =       0.7000
     number of iterations used =            4
     Exchange-correlation= PBE
                           (   1   4   3   4   0   0   0)


     celldm(1)=    5.37776  celldm(2)=    0.00000  celldm(3)=    0.00000
     celldm(4)=    0.00000  celldm(5)=    0.00000  celldm(6)=    0.00000

     crystal axes: (cart. coord. in units of alat)
               a(1) = (  0.0000  0.7071  0.7071 )  
               a(2) = (  0.7071  0.0000  0.7071 )  
               a(3) = (  0.7071  0.7071  0.0000 )  

     reciprocal axes: (cart. coord. in units 2 pi/alat)
               b(1) = ( -0.7071  0.7071  0.7071 )  
               b(2) = (  0.7071 -0.7071  0.7071 )  
               b(3) = (  0.7071  0.7071 -0.7071 )  


     Atoms inside the unit cell: 

     Cartesian axes

     site n.  atom      mass           positions (alat units)
        1     Al  26.9815   tau(    1) = (    0.00000    0.00000    0.00000  )

     Computing dynamical matrix for 
                    q = (  -0.0883883  -0.0883883   0.2651650 )

      2 Sym.Ops. (no q -> -q+G )


     G cutoff =  190.4658  (   7799 G-vectors)     FFT grid: ( 27, 27, 27)
     number of k points=  4352

     PseudoPot. # 1 for Al read from file:
     ./Al.pbe-n-nc.UPF
     MD5 check sum: 670bd543589c27b6508fb047b2733a83
     Pseudo is Norm-conserving + core correction, Zval =  3.0
     Generated using "atomic" code by A. Dal Corso v.5.0.99 svn rev. 10869
     Using radial grid of 1135 points,  2 beta functions with: 
                l(1) =   0
                l(2) =   1


     Atomic displacements:
     There are   3 irreducible representations

     Representation     1      1 modes -  To be done

     Representation     2      1 modes -  To be done

     Representation     3      1 modes -  To be done


     PHONON       :   1m15.03s CPU   1m26.03s WALL

     Reading dVscf from file dv
     Reading dynamics matrix from file matdyn4

     [elph_tetra]   Lowest band which contains FS :          2
     [elph_tetra]  Highest band which contains FS :          3
     [elph_tetra]    # of bands which contains FS :          2

     Tetrahedron method
     DOS =  2.705989 states/spin/Ry/Unit Cell at Ef=  8.043061 eV
     double delta at Ef = 21.277851
     lambda(    1)=  0.2123   gamma=    6.78 GHz
     lambda(    2)=  0.1623   gamma=    5.57 GHz
     lambda(    3)=  0.3254   gamma=   33.99 GHz

     Number of q in the star =   24
     List of q in the star:
          1  -0.088388348  -0.088388348   0.265165043
          2   0.265165043  -0.088388348  -0.088388348
          3  -0.088388348   0.265165043  -0.088388348
          4  -0.088388348   0.088388348   0.265165043
          5   0.088388348  -0.088388348   0.265165043
          6   0.265165043   0.088388348  -0.088388348
          7  -0.265165043   0.088388348   0.088388348
          8   0.265165043  -0.088388348   0.088388348
          9  -0.265165043  -0.088388348  -0.088388348
         10   0.088388348   0.265165043  -0.088388348
         11   0.088388348  -0.265165043   0.088388348
         12  -0.088388348   0.265165043   0.088388348
         13  -0.088388348  -0.265165043  -0.088388348
         14   0.088388348   0.088388348   0.265165043
         15   0.088388348   0.265165043   0.088388348
         16  -0.088388348  -0.265165043   0.088388348
         17   0.088388348  -0.265165043  -0.088388348
         18   0.088388348  -0.088388348  -0.265165043
         19   0.265165043   0.088388348   0.088388348
         20  -0.265165043   0.088388348  -0.088388348
         21  -0.265165043  -0.088388348   0.088388348
         22   0.088388348   0.088388348  -0.265165043
         23  -0.088388348  -0.088388348  -0.265165043
         24  -0.088388348   0.088388348  -0.265165043

     Calculation of q =    0.4419417   0.0883883   0.0883883
     [opt_tetra]  Optimized tetrahedron method is used.

     G-vector sticks info
     --------------------
     sticks:   dense  smooth     PW     G-vecs:    dense   smooth      PW
     Sum         511     511    187                 7799     7799    1687


     Title: 
     Electron-phonon                                                            


     bravais-lattice index     =            0
     lattice parameter (alat)  =       5.3778  a.u.
     unit-cell volume          =     109.9740 (a.u.)^3
     number of atoms/cell      =            1
     number of atomic types    =            1
     number of electrons       =         3.00
     number of Kohn-Sham states=            6
     kinetic-energy cutoff     =      65.0000  Ry
     charge density cutoff     =     260.0000  Ry
     Exchange-correlation= PBE
                           (   1   4   3   4   0   0   0)

     celldm(1)=   5.377763  celldm(2)=   0.000000  celldm(3)=   0.000000
     celldm(4)=   0.000000  celldm(5)=   0.000000  celldm(6)=   0.000000

     crystal axes: (cart. coord. in units of alat)
               a(1) = (   0.000000   0.707107   0.707107 )  
               a(2) = (   0.707107   0.000000   0.707107 )  
               a(3) = (   0.707107   0.707107   0.000000 )  

     reciprocal axes: (cart. coord. in units 2 pi/alat)
               b(1) = ( -0.707107  0.707107  0.707107 )  
               b(2) = (  0.707107 -0.707107  0.707107 )  
               b(3) = (  0.707107  0.707107 -0.707107 )  


     PseudoPot. # 1 for Al read from file:
     ./Al.pbe-n-nc.UPF
     MD5 check sum: 670bd543589c27b6508fb047b2733a83
     Pseudo is Norm-conserving + core correction, Zval =  3.0
     Generated using "atomic" code by A. Dal Corso v.5.0.99 svn rev. 10869
     Using radial grid of 1135 points,  2 beta functions with: 
                l(1) =   0
                l(2) =   1

     atomic species   valence    mass     pseudopotential
        Al             3.00    26.98154     Al( 1.00)

     48 Sym. Ops., with inversion, found



   Cartesian axes

     site n.     atom                  positions (alat units)
         1           Al  tau(   1) = (   0.0000000   0.0000000   0.0000000  )

     number of k points=  4352 (tetrahedron method)

     Number of k-points >= 100: set verbosity='high' to print them.

     Dense  grid:     7799 G-vectors     FFT dimensions: (  27,  27,  27)

     Estimated max dynamical RAM per process >       3.41 MB

     Estimated total dynamical RAM >      98.84 MB

     Check: negative core charge=   -0.000002

     The potential is recalculated from file :
     ./_ph0/pwscf.q_5/pwscf.save/charge-density

     Starting wfcs are    4 atomic +    2 random wfcs

     Band Structure Calculation
     Davidson diagonalization with overlap

     ethr =  3.33E-10,  avg # of iterations = 14.9

     total cpu time spent up to now is      100.5 secs

     End of band structure calculation

     Number of k-points >= 100: set verbosity='high' to print the bands.

     the Fermi energy is     8.0431 ev

     Writing output data file ./_ph0/pwscf.q_5/pwscf.save/
 
     [dfpt_tetra]  Dos(E_F)[/Ry] :   0.5411978E+01

     Electron-phonon                                                            

     bravais-lattice index     =            0
     lattice parameter (alat)  =       5.3778  a.u.
     unit-cell volume          =     109.9740 (a.u.)^3
     number of atoms/cell      =            1
     number of atomic types    =            1
     kinetic-energy cut-off    =      65.0000  Ry
     charge density cut-off    =     260.0000  Ry
     convergence threshold     =      1.0E-12
     beta                      =       0.7000
     number of iterations used =            4
     Exchange-correlation= PBE
                           (   1   4   3   4   0   0   0)


     celldm(1)=    5.37776  celldm(2)=    0.00000  celldm(3)=    0.00000
     celldm(4)=    0.00000  celldm(5)=    0.00000  celldm(6)=    0.00000

     crystal axes: (cart. coord. in units of alat)
               a(1) = (  0.0000  0.7071  0.7071 )  
               a(2) = (  0.7071  0.0000  0.7071 )  
               a(3) = (  0.7071  0.7071  0.0000 )  

     reciprocal axes: (cart. coord. in units 2 pi/alat)
               b(1) = ( -0.7071  0.7071  0.7071 )  
               b(2) = (  0.7071 -0.7071  0.7071 )  
               b(3) = (  0.7071  0.7071 -0.7071 )  


     Atoms inside the unit cell: 

     Cartesian axes

     site n.  atom      mass           positions (alat units)
        1     Al  26.9815   tau(    1) = (    0.00000    0.00000    0.00000  )

     Computing dynamical matrix for 
                    q = (   0.4419417   0.0883883   0.0883883 )

      2 Sym.Ops. (no q -> -q+G )


     G cutoff =  190.4658  (   7799 G-vectors)     FFT grid: ( 27, 27, 27)
     number of k points=  4352

     PseudoPot. # 1 for Al read from file:
     ./Al.pbe-n-nc.UPF
     MD5 check sum: 670bd543589c27b6508fb047b2733a83
     Pseudo is Norm-conserving + core correction, Zval =  3.0
     Generated using "atomic" code by A. Dal Corso v.5.0.99 svn rev. 10869
     Using radial grid of 1135 points,  2 beta functions with: 
                l(1) =   0
                l(2) =   1


     Atomic displacements:
     There are   3 irreducible representations

     Representation     1      1 modes -  To be done

     Representation     2      1 modes -  To be done

     Representation     3      1 modes -  To be done


     PHONON       :   1m36.45s CPU   1m51.35s WALL

     Reading dVscf from file dv
     Reading dynamics matrix from file matdyn5

     [elph_tetra]   Lowest band which contains FS :          2
     [elph_tetra]  Highest band which contains FS :          3
     [elph_tetra]    # of bands which contains FS :          2

     Tetrahedron method
     DOS =  2.705989 states/spin/Ry/Unit Cell at Ef=  8.043061 eV
     double delta at Ef = 13.226215
     lambda(    1)=  0.1050   gamma=    6.41 GHz
     lambda(    2)=  0.0721   gamma=    5.52 GHz
     lambda(    3)=  0.2019   gamma=   36.18 GHz

     Number of q in the star =   24
     List of q in the star:
          1   0.441941738   0.088388348   0.088388348
          2   0.088388348   0.441941738   0.088388348
          3   0.088388348   0.088388348   0.441941738
          4   0.088388348  -0.441941738   0.088388348
          5  -0.088388348   0.441941738   0.088388348
          6   0.088388348  -0.088388348   0.441941738
          7  -0.088388348  -0.088388348  -0.441941738
          8   0.088388348   0.088388348  -0.441941738
          9  -0.088388348   0.088388348   0.441941738
         10  -0.441941738   0.088388348   0.088388348
         11  -0.441941738  -0.088388348  -0.088388348
         12   0.441941738   0.088388348  -0.088388348
         13   0.441941738  -0.088388348   0.088388348
         14  -0.441941738  -0.088388348   0.088388348
         15  -0.088388348   0.088388348  -0.441941738
         16   0.088388348  -0.088388348  -0.441941738
         17  -0.088388348  -0.088388348   0.441941738
         18  -0.441941738   0.088388348  -0.088388348
         19   0.088388348  -0.441941738  -0.088388348
         20  -0.088388348  -0.441941738   0.088388348
         21  -0.088388348   0.441941738  -0.088388348
         22   0.441941738  -0.088388348  -0.088388348
         23   0.088388348   0.441941738  -0.088388348
         24  -0.088388348  -0.441941738  -0.088388348

     Calculation of q =   -0.0883883  -0.4419417   0.6187184
     [opt_tetra]  Optimized tetrahedron method is used.

     G-vector sticks info
     --------------------
     sticks:   dense  smooth     PW     G-vecs:    dense   smooth      PW
     Sum         511     511    199                 7799     7799    1917


     Title: 
     Electron-phonon                                                            


     bravais-lattice index     =            0
     lattice parameter (alat)  =       5.3778  a.u.
     unit-cell volume          =     109.9740 (a.u.)^3
     number of atoms/cell      =            1
     number of atomic types    =            1
     number of electrons       =         3.00
     number of Kohn-Sham states=            6
     kinetic-energy cutoff     =      65.0000  Ry
     charge density cutoff     =     260.0000  Ry
     Exchange-correlation= PBE
                           (   1   4   3   4   0   0   0)

     celldm(1)=   5.377763  celldm(2)=   0.000000  celldm(3)=   0.000000
     celldm(4)=   0.000000  celldm(5)=   0.000000  celldm(6)=   0.000000

     crystal axes: (cart. coord. in units of alat)
               a(1) = (   0.000000   0.707107   0.707107 )  
               a(2) = (   0.707107   0.000000   0.707107 )  
               a(3) = (   0.707107   0.707107   0.000000 )  

     reciprocal axes: (cart. coord. in units 2 pi/alat)
               b(1) = ( -0.707107  0.707107  0.707107 )  
               b(2) = (  0.707107 -0.707107  0.707107 )  
               b(3) = (  0.707107  0.707107 -0.707107 )  


     PseudoPot. # 1 for Al read from file:
     ./Al.pbe-n-nc.UPF
     MD5 check sum: 670bd543589c27b6508fb047b2733a83
     Pseudo is Norm-conserving + core correction, Zval =  3.0
     Generated using "atomic" code by A. Dal Corso v.5.0.99 svn rev. 10869
     Using radial grid of 1135 points,  2 beta functions with: 
                l(1) =   0
                l(2) =   1

     atomic species   valence    mass     pseudopotential
        Al             3.00    26.98154     Al( 1.00)

     48 Sym. Ops., with inversion, found



   Cartesian axes

     site n.     atom                  positions (alat units)
         1           Al  tau(   1) = (   0.0000000   0.0000000   0.0000000  )

     number of k points=  8192 (tetrahedron method)

     Number of k-points >= 100: set verbosity='high' to print them.

     Dense  grid:     7799 G-vectors     FFT dimensions: (  27,  27,  27)

     Estimated max dynamical RAM per process >       3.41 MB

     Estimated total dynamical RAM >      98.90 MB

     Check: negative core charge=   -0.000002

     The potential is recalculated from file :
     ./_ph0/pwscf.q_6/pwscf.save/charge-density

     Starting wfcs are    4 atomic +    2 random wfcs

     Band Structure Calculation
     Davidson diagonalization with overlap

     ethr =  3.33E-10,  avg # of iterations = 14.9

     total cpu time spent up to now is      139.3 secs

     End of band structure calculation

     Number of k-points >= 100: set verbosity='high' to print the bands.

     the Fermi energy is     8.0431 ev

     Writing output data file ./_ph0/pwscf.q_6/pwscf.save/
 
     [dfpt_tetra]  Dos(E_F)[/Ry] :   0.5411978E+01

     Electron-phonon                                                            

     bravais-lattice index     =            0
     lattice parameter (alat)  =       5.3778  a.u.
     unit-cell volume          =     109.9740 (a.u.)^3
     number of atoms/cell      =            1
     number of atomic types    =            1
     kinetic-energy cut-off    =      65.0000  Ry
     charge density cut-off    =     260.0000  Ry
     convergence threshold     =      1.0E-12
     beta                      =       0.7000
     number of iterations used =            4
     Exchange-correlation= PBE
                           (   1   4   3   4   0   0   0)


     celldm(1)=    5.37776  celldm(2)=    0.00000  celldm(3)=    0.00000
     celldm(4)=    0.00000  celldm(5)=    0.00000  celldm(6)=    0.00000

     crystal axes: (cart. coord. in units of alat)
               a(1) = (  0.0000  0.7071  0.7071 )  
               a(2) = (  0.7071  0.0000  0.7071 )  
               a(3) = (  0.7071  0.7071  0.0000 )  

     reciprocal axes: (cart. coord. in units 2 pi/alat)
               b(1) = ( -0.7071  0.7071  0.7071 )  
               b(2) = (  0.7071 -0.7071  0.7071 )  
               b(3) = (  0.7071  0.7071 -0.7071 )  


     Atoms inside the unit cell: 

     Cartesian axes

     site n.  atom      mass           positions (alat units)
        1     Al  26.9815   tau(    1) = (    0.00000    0.00000    0.00000  )

     Computing dynamical matrix for 
                    q = (  -0.0883883  -0.4419417   0.6187184 )

     No symmetry!

     G cutoff =  190.4658  (   7799 G-vectors)     FFT grid: ( 27, 27, 27)
     number of k points=  8192

     PseudoPot. # 1 for Al read from file:
     ./Al.pbe-n-nc.UPF
     MD5 check sum: 670bd543589c27b6508fb047b2733a83
     Pseudo is Norm-conserving + core correction, Zval =  3.0
     Generated using "atomic" code by A. Dal Corso v.5.0.99 svn rev. 10869
     Using radial grid of 1135 points,  2 beta functions with: 
                l(1) =   0
                l(2) =   1


     Atomic displacements:
     There are   3 irreducible representations

     Representation     1      1 modes -  To be done

     Representation     2      1 modes -  To be done

     Representation     3      1 modes -  To be done


     PHONON       :   2m11.83s CPU   2m33.34s WALL

     Reading dVscf from file dv
     Reading dynamics matrix from file matdyn6

     [elph_tetra]   Lowest band which contains FS :          2
     [elph_tetra]  Highest band which contains FS :          3
     [elph_tetra]    # of bands which contains FS :          2

     Tetrahedron method
     DOS =  2.705989 states/spin/Ry/Unit Cell at Ef=  8.043061 eV
     double delta at Ef = 15.031819
     lambda(    1)=  0.1317   gamma=   11.75 GHz
     lambda(    2)=  0.1226   gamma=   17.90 GHz
     lambda(    3)=  0.1607   gamma=   32.46 GHz

     Number of q in the star =   48
     List of q in the star:
          1  -0.088388348  -0.441941738   0.618718434
          2  -0.088388348   0.618718434  -0.441941738
          3   0.618718434  -0.088388348  -0.441941738
          4  -0.441941738   0.618718434  -0.088388348
          5   0.618718434  -0.441941738  -0.088388348
          6  -0.441941738  -0.088388348   0.618718434
          7  -0.441941738   0.088388348   0.618718434
          8   0.441941738  -0.088388348   0.618718434
          9   0.618718434   0.441941738  -0.088388348
         10  -0.618718434   0.441941738   0.088388348
         11   0.618718434  -0.441941738   0.088388348
         12  -0.618718434  -0.441941738  -0.088388348
         13   0.088388348   0.618718434  -0.441941738
         14   0.088388348  -0.618718434   0.441941738
         15  -0.088388348   0.618718434   0.441941738
         16  -0.088388348  -0.618718434  -0.441941738
         17   0.088388348   0.441941738   0.618718434
         18   0.441941738   0.618718434   0.088388348
         19  -0.441941738  -0.618718434   0.088388348
         20   0.441941738  -0.618718434  -0.088388348
         21   0.088388348  -0.441941738  -0.618718434
         22   0.618718434   0.088388348   0.441941738
         23  -0.618718434   0.088388348  -0.441941738
         24  -0.618718434  -0.088388348   0.441941738
         25   0.088388348   0.441941738  -0.618718434
         26  -0.088388348  -0.441941738  -0.618718434
         27  -0.088388348   0.441941738   0.618718434
         28   0.088388348  -0.441941738   0.618718434
         29   0.441941738   0.088388348   0.618718434
         30  -0.088388348   0.441941738  -0.618718434
         31   0.441941738  -0.088388348  -0.618718434
         32  -0.441941738   0.088388348  -0.618718434
         33  -0.618718434  -0.441941738   0.088388348
         34  -0.441941738  -0.088388348  -0.618718434
         35  -0.618718434   0.441941738  -0.088388348
         36   0.618718434   0.441941738   0.088388348
         37  -0.088388348  -0.618718434   0.441941738
         38   0.441941738   0.088388348  -0.618718434
         39   0.088388348  -0.618718434  -0.441941738
         40   0.088388348   0.618718434   0.441941738
         41   0.441941738  -0.618718434   0.088388348
         42  -0.441941738  -0.618718434  -0.088388348
         43   0.441941738   0.618718434  -0.088388348
         44  -0.441941738   0.618718434   0.088388348
         45  -0.618718434   0.088388348   0.441941738
         46  -0.618718434  -0.088388348  -0.441941738
         47   0.618718434  -0.088388348   0.441941738
         48   0.618718434   0.088388348  -0.441941738

     Calculation of q =    0.0883883  -0.2651650   0.4419417
     [opt_tetra]  Optimized tetrahedron method is used.

     G-vector sticks info
     --------------------
     sticks:   dense  smooth     PW     G-vecs:    dense   smooth      PW
     Sum         511     511    199                 7799     7799    1759


     Title: 
     Electron-phonon                                                            


     bravais-lattice index     =            0
     lattice parameter (alat)  =       5.3778  a.u.
     unit-cell volume          =     109.9740 (a.u.)^3
     number of atoms/cell      =            1
     number of atomic types    =            1
     number of electrons       =         3.00
     number of Kohn-Sham states=            6
     kinetic-energy cutoff     =      65.0000  Ry
     charge density cutoff     =     260.0000  Ry
     Exchange-correlation= PBE
                           (   1   4   3   4   0   0   0)

     celldm(1)=   5.377763  celldm(2)=   0.000000  celldm(3)=   0.000000
     celldm(4)=   0.000000  celldm(5)=   0.000000  celldm(6)=   0.000000

     crystal axes: (cart. coord. in units of alat)
               a(1) = (   0.000000   0.707107   0.707107 )  
               a(2) = (   0.707107   0.000000   0.707107 )  
               a(3) = (   0.707107   0.707107   0.000000 )  

     reciprocal axes: (cart. coord. in units 2 pi/alat)
               b(1) = ( -0.707107  0.707107  0.707107 )  
               b(2) = (  0.707107 -0.707107  0.707107 )  
               b(3) = (  0.707107  0.707107 -0.707107 )  


     PseudoPot. # 1 for Al read from file:
     ./Al.pbe-n-nc.UPF
     MD5 check sum: 670bd543589c27b6508fb047b2733a83
     Pseudo is Norm-conserving + core correction, Zval =  3.0
     Generated using "atomic" code by A. Dal Corso v.5.0.99 svn rev. 10869
     Using radial grid of 1135 points,  2 beta functions with: 
                l(1) =   0
                l(2) =   1

     atomic species   valence    mass     pseudopotential
        Al             3.00    26.98154     Al( 1.00)

     48 Sym. Ops., with inversion, found



   Cartesian axes

     site n.     atom                  positions (alat units)
         1           Al  tau(   1) = (   0.0000000   0.0000000   0.0000000  )

     number of k points=  8192 (tetrahedron method)

     Number of k-points >= 100: set verbosity='high' to print them.

     Dense  grid:     7799 G-vectors     FFT dimensions: (  27,  27,  27)

     Estimated max dynamical RAM per process >       3.41 MB

     Estimated total dynamical RAM >      98.85 MB

     Check: negative core charge=   -0.000002

     The potential is recalculated from file :
     ./_ph0/pwscf.q_7/pwscf.save/charge-density

     Starting wfcs are    4 atomic +    2 random wfcs

     Band Structure Calculation
     Davidson diagonalization with overlap

     ethr =  3.33E-10,  avg # of iterations = 14.9

     total cpu time spent up to now is      178.5 secs

     End of band structure calculation

     Number of k-points >= 100: set verbosity='high' to print the bands.

     the Fermi energy is     8.0431 ev

     Writing output data file ./_ph0/pwscf.q_7/pwscf.save/
 
     [dfpt_tetra]  Dos(E_F)[/Ry] :   0.5411978E+01

     Electron-phonon                                                            

     bravais-lattice index     =            0
     lattice parameter (alat)  =       5.3778  a.u.
     unit-cell volume          =     109.9740 (a.u.)^3
     number of atoms/cell      =            1
     number of atomic types    =            1
     kinetic-energy cut-off    =      65.0000  Ry
     charge density cut-off    =     260.0000  Ry
     convergence threshold     =      1.0E-12
     beta                      =       0.7000
     number of iterations used =            4
     Exchange-correlation= PBE
                           (   1   4   3   4   0   0   0)


     celldm(1)=    5.37776  celldm(2)=    0.00000  celldm(3)=    0.00000
     celldm(4)=    0.00000  celldm(5)=    0.00000  celldm(6)=    0.00000

     crystal axes: (cart. coord. in units of alat)
               a(1) = (  0.0000  0.7071  0.7071 )  
               a(2) = (  0.7071  0.0000  0.7071 )  
               a(3) = (  0.7071  0.7071  0.0000 )  

     reciprocal axes: (cart. coord. in units 2 pi/alat)
               b(1) = ( -0.7071  0.7071  0.7071 )  
               b(2) = (  0.7071 -0.7071  0.7071 )  
               b(3) = (  0.7071  0.7071 -0.7071 )  


     Atoms inside the unit cell: 

     Cartesian axes

     site n.  atom      mass           positions (alat units)
        1     Al  26.9815   tau(    1) = (    0.00000    0.00000    0.00000  )

     Computing dynamical matrix for 
                    q = (   0.0883883  -0.2651650   0.4419417 )

     No symmetry!

     G cutoff =  190.4658  (   7799 G-vectors)     FFT grid: ( 27, 27, 27)
     number of k points=  8192

     PseudoPot. # 1 for Al read from file:
     ./Al.pbe-n-nc.UPF
     MD5 check sum: 670bd543589c27b6508fb047b2733a83
     Pseudo is Norm-conserving + core correction, Zval =  3.0
     Generated using "atomic" code by A. Dal Corso v.5.0.99 svn rev. 10869
     Using radial grid of 1135 points,  2 beta functions with: 
                l(1) =   0
                l(2) =   1


     Atomic displacements:
     There are   3 irreducible representations

     Representation     1      1 modes -  To be done

     Representation     2      1 modes -  To be done

     Representation     3      1 modes -  To be done


     PHONON       :   2m48.19s CPU   3m16.98s WALL

     Reading dVscf from file dv
     Reading dynamics matrix from file matdyn7

     [elph_tetra]   Lowest band which contains FS :          2
     [elph_tetra]  Highest band which contains FS :          3
     [elph_tetra]    # of bands which contains FS :          2

     Tetrahedron method
     DOS =  2.705989 states/spin/Ry/Unit Cell at Ef=  8.043061 eV
     double delta at Ef = 13.973114
     lambda(    1)=  0.0581   gamma=    3.76 GHz
     lambda(    2)=  0.0770   gamma=    7.97 GHz
     lambda(    3)=  0.1965   gamma=   39.60 GHz

     Number of q in the star =   48
     List of q in the star:
          1   0.088388348  -0.265165043   0.441941738
          2   0.088388348   0.441941738  -0.265165043
          3   0.441941738   0.088388348  -0.265165043
          4  -0.265165043   0.441941738   0.088388348
          5   0.441941738  -0.265165043   0.088388348
          6  -0.265165043   0.088388348   0.441941738
          7  -0.265165043  -0.088388348   0.441941738
          8   0.265165043   0.088388348   0.441941738
          9   0.441941738   0.265165043   0.088388348
         10  -0.441941738   0.265165043  -0.088388348
         11   0.441941738  -0.265165043  -0.088388348
         12  -0.441941738  -0.265165043   0.088388348
         13  -0.088388348   0.441941738  -0.265165043
         14  -0.088388348  -0.441941738   0.265165043
         15   0.088388348   0.441941738   0.265165043
         16   0.088388348  -0.441941738  -0.265165043
         17  -0.088388348   0.265165043   0.441941738
         18   0.265165043   0.441941738  -0.088388348
         19  -0.265165043  -0.441941738  -0.088388348
         20   0.265165043  -0.441941738   0.088388348
         21  -0.088388348  -0.265165043  -0.441941738
         22   0.441941738  -0.088388348   0.265165043
         23  -0.441941738  -0.088388348  -0.265165043
         24  -0.441941738   0.088388348   0.265165043
         25  -0.088388348   0.265165043  -0.441941738
         26   0.088388348  -0.265165043  -0.441941738
         27   0.088388348   0.265165043   0.441941738
         28  -0.088388348  -0.265165043   0.441941738
         29   0.265165043  -0.088388348   0.441941738
         30   0.088388348   0.265165043  -0.441941738
         31   0.265165043   0.088388348  -0.441941738
         32  -0.265165043  -0.088388348  -0.441941738
         33  -0.441941738  -0.265165043  -0.088388348
         34  -0.265165043   0.088388348  -0.441941738
         35  -0.441941738   0.265165043   0.088388348
         36   0.441941738   0.265165043  -0.088388348
         37   0.088388348  -0.441941738   0.265165043
         38   0.265165043  -0.088388348  -0.441941738
         39  -0.088388348  -0.441941738  -0.265165043
         40  -0.088388348   0.441941738   0.265165043
         41   0.265165043  -0.441941738  -0.088388348
         42  -0.265165043  -0.441941738   0.088388348
         43   0.265165043   0.441941738   0.088388348
         44  -0.265165043   0.441941738  -0.088388348
         45  -0.441941738  -0.088388348   0.265165043
         46  -0.441941738   0.088388348  -0.265165043
         47   0.441941738   0.088388348   0.265165043
         48   0.441941738  -0.088388348  -0.265165043

     Calculation of q =   -0.6187184   0.0883883   0.0883883
     [opt_tetra]  Optimized tetrahedron method is used.

     G-vector sticks info
     --------------------
     sticks:   dense  smooth     PW     G-vecs:    dense   smooth      PW
     Sum         511     511    199                 7799     7799    1807


     Title: 
     Electron-phonon                                                            


     bravais-lattice index     =            0
     lattice parameter (alat)  =       5.3778  a.u.
     unit-cell volume          =     109.9740 (a.u.)^3
     number of atoms/cell      =            1
     number of atomic types    =            1
     number of electrons       =         3.00
     number of Kohn-Sham states=            6
     kinetic-energy cutoff     =      65.0000  Ry
     charge density cutoff     =     260.0000  Ry
     Exchange-correlation= PBE
                           (   1   4   3   4   0   0   0)

     celldm(1)=   5.377763  celldm(2)=   0.000000  celldm(3)=   0.000000
     celldm(4)=   0.000000  celldm(5)=   0.000000  celldm(6)=   0.000000

     crystal axes: (cart. coord. in units of alat)
               a(1) = (   0.000000   0.707107   0.707107 )  
               a(2) = (   0.707107   0.000000   0.707107 )  
               a(3) = (   0.707107   0.707107   0.000000 )  

     reciprocal axes: (cart. coord. in units 2 pi/alat)
               b(1) = ( -0.707107  0.707107  0.707107 )  
               b(2) = (  0.707107 -0.707107  0.707107 )  
               b(3) = (  0.707107  0.707107 -0.707107 )  


     PseudoPot. # 1 for Al read from file:
     ./Al.pbe-n-nc.UPF
     MD5 check sum: 670bd543589c27b6508fb047b2733a83
     Pseudo is Norm-conserving + core correction, Zval =  3.0
     Generated using "atomic" code by A. Dal Corso v.5.0.99 svn rev. 10869
     Using radial grid of 1135 points,  2 beta functions with: 
                l(1) =   0
                l(2) =   1

     atomic species   valence    mass     pseudopotential
        Al             3.00    26.98154     Al( 1.00)

     48 Sym. Ops., with inversion, found



   Cartesian axes

     site n.     atom                  positions (alat units)
         1           Al  tau(   1) = (   0.0000000   0.0000000   0.0000000  )

     number of k points=  4352 (tetrahedron method)

     Number of k-points >= 100: set verbosity='high' to print them.

     Dense  grid:     7799 G-vectors     FFT dimensions: (  27,  27,  27)

     Estimated max dynamical RAM per process >       3.41 MB

     Estimated total dynamical RAM >      98.87 MB

     Check: negative core charge=   -0.000002

     The potential is recalculated from file :
     ./_ph0/pwscf.q_8/pwscf.save/charge-density

     Starting wfcs are    4 atomic +    2 random wfcs

     Band Structure Calculation
     Davidson diagonalization with overlap

     ethr =  3.33E-10,  avg # of iterations = 15.0

     total cpu time spent up to now is      201.3 secs

     End of band structure calculation

     Number of k-points >= 100: set verbosity='high' to print the bands.

     the Fermi energy is     8.0431 ev

     Writing output data file ./_ph0/pwscf.q_8/pwscf.save/
 
     [dfpt_tetra]  Dos(E_F)[/Ry] :   0.5411978E+01

     Electron-phonon                                                            

     bravais-lattice index     =            0
     lattice parameter (alat)  =       5.3778  a.u.
     unit-cell volume          =     109.9740 (a.u.)^3
     number of atoms/cell      =            1
     number of atomic types    =            1
     kinetic-energy cut-off    =      65.0000  Ry
     charge density cut-off    =     260.0000  Ry
     convergence threshold     =      1.0E-12
     beta                      =       0.7000
     number of iterations used =            4
     Exchange-correlation= PBE
                           (   1   4   3   4   0   0   0)


     celldm(1)=    5.37776  celldm(2)=    0.00000  celldm(3)=    0.00000
     celldm(4)=    0.00000  celldm(5)=    0.00000  celldm(6)=    0.00000

     crystal axes: (cart. coord. in units of alat)
               a(1) = (  0.0000  0.7071  0.7071 )  
               a(2) = (  0.7071  0.0000  0.7071 )  
               a(3) = (  0.7071  0.7071  0.0000 )  

     reciprocal axes: (cart. coord. in units 2 pi/alat)
               b(1) = ( -0.7071  0.7071  0.7071 )  
               b(2) = (  0.7071 -0.7071  0.7071 )  
               b(3) = (  0.7071  0.7071 -0.7071 )  


     Atoms inside the unit cell: 

     Cartesian axes

     site n.  atom      mass           positions (alat units)
        1     Al  26.9815   tau(    1) = (    0.00000    0.00000    0.00000  )

     Computing dynamical matrix for 
                    q = (  -0.6187184   0.0883883   0.0883883 )

      2 Sym.Ops. (no q -> -q+G )


     G cutoff =  190.4658  (   7799 G-vectors)     FFT grid: ( 27, 27, 27)
     number of k points=  4352

     PseudoPot. # 1 for Al read from file:
     ./Al.pbe-n-nc.UPF
     MD5 check sum: 670bd543589c27b6508fb047b2733a83
     Pseudo is Norm-conserving + core correction, Zval =  3.0
     Generated using "atomic" code by A. Dal Corso v.5.0.99 svn rev. 10869
     Using radial grid of 1135 points,  2 beta functions with: 
                l(1) =   0
                l(2) =   1


     Atomic displacements:
     There are   3 irreducible representations

     Representation     1      1 modes -  To be done

     Representation     2      1 modes -  To be done

     Representation     3      1 modes -  To be done


     PHONON       :   3m12.03s CPU   3m44.18s WALL

     Reading dVscf from file dv
     Reading dynamics matrix from file matdyn8

     [elph_tetra]   Lowest band which contains FS :          2
     [elph_tetra]  Highest band which contains FS :          3
     [elph_tetra]    # of bands which contains FS :          2

     Tetrahedron method
     DOS =  2.705989 states/spin/Ry/Unit Cell at Ef=  8.043061 eV
     double delta at Ef = 12.022572
     lambda(    1)=  0.0902   gamma=    7.71 GHz
     lambda(    2)=  0.0981   gamma=   10.30 GHz
     lambda(    3)=  0.1620   gamma=   36.83 GHz

     Number of q in the star =   24
     List of q in the star:
          1  -0.618718434   0.088388348   0.088388348
          2   0.088388348  -0.618718434   0.088388348
          3   0.088388348   0.088388348  -0.618718434
          4   0.088388348   0.618718434   0.088388348
          5  -0.088388348  -0.618718434   0.088388348
          6   0.088388348  -0.088388348  -0.618718434
          7  -0.088388348  -0.088388348   0.618718434
          8   0.088388348   0.088388348   0.618718434
          9  -0.088388348   0.088388348  -0.618718434
         10   0.618718434   0.088388348   0.088388348
         11   0.618718434  -0.088388348  -0.088388348
         12  -0.618718434   0.088388348  -0.088388348
         13  -0.618718434  -0.088388348   0.088388348
         14   0.618718434  -0.088388348   0.088388348
         15  -0.088388348   0.088388348   0.618718434
         16   0.088388348  -0.088388348   0.618718434
         17  -0.088388348  -0.088388348  -0.618718434
         18   0.618718434   0.088388348  -0.088388348
         19   0.088388348   0.618718434  -0.088388348
         20  -0.088388348   0.618718434   0.088388348
         21  -0.088388348  -0.618718434  -0.088388348
         22  -0.618718434  -0.088388348  -0.088388348
         23   0.088388348  -0.618718434  -0.088388348
         24  -0.088388348   0.618718434  -0.088388348

     Calculation of q =    0.2651650   0.2651650   0.2651650
     [opt_tetra]  Optimized tetrahedron method is used.

     G-vector sticks info
     --------------------
     sticks:   dense  smooth     PW     G-vecs:    dense   smooth      PW
     Sum         511     511    187                 7799     7799    1687


     Title: 
     Electron-phonon                                                            


     bravais-lattice index     =            0
     lattice parameter (alat)  =       5.3778  a.u.
     unit-cell volume          =     109.9740 (a.u.)^3
     number of atoms/cell      =            1
     number of atomic types    =            1
     number of electrons       =         3.00
     number of Kohn-Sham states=            6
     kinetic-energy cutoff     =      65.0000  Ry
     charge density cutoff     =     260.0000  Ry
     Exchange-correlation= PBE
                           (   1   4   3   4   0   0   0)

     celldm(1)=   5.377763  celldm(2)=   0.000000  celldm(3)=   0.000000
     celldm(4)=   0.000000  celldm(5)=   0.000000  celldm(6)=   0.000000

     crystal axes: (cart. coord. in units of alat)
               a(1) = (   0.000000   0.707107   0.707107 )  
               a(2) = (   0.707107   0.000000   0.707107 )  
               a(3) = (   0.707107   0.707107   0.000000 )  

     reciprocal axes: (cart. coord. in units 2 pi/alat)
               b(1) = ( -0.707107  0.707107  0.707107 )  
               b(2) = (  0.707107 -0.707107  0.707107 )  
               b(3) = (  0.707107  0.707107 -0.707107 )  


     PseudoPot. # 1 for Al read from file:
     ./Al.pbe-n-nc.UPF
     MD5 check sum: 670bd543589c27b6508fb047b2733a83
     Pseudo is Norm-conserving + core correction, Zval =  3.0
     Generated using "atomic" code by A. Dal Corso v.5.0.99 svn rev. 10869
     Using radial grid of 1135 points,  2 beta functions with: 
                l(1) =   0
                l(2) =   1

     atomic species   valence    mass     pseudopotential
        Al             3.00    26.98154     Al( 1.00)

     48 Sym. Ops., with inversion, found



   Cartesian axes

     site n.     atom                  positions (alat units)
         1           Al  tau(   1) = (   0.0000000   0.0000000   0.0000000  )

     number of k points=  1632 (tetrahedron method)

     Number of k-points >= 100: set verbosity='high' to print them.

     Dense  grid:     7799 G-vectors     FFT dimensions: (  27,  27,  27)

     Estimated max dynamical RAM per process >       3.41 MB

     Estimated total dynamical RAM >      98.84 MB

     Check: negative core charge=   -0.000002

     The potential is recalculated from file :
     ./_ph0/pwscf.q_9/pwscf.save/charge-density

     Starting wfcs are    4 atomic +    2 random wfcs

     Band Structure Calculation
     Davidson diagonalization with overlap

     ethr =  3.33E-10,  avg # of iterations = 15.2

     total cpu time spent up to now is      212.6 secs

     End of band structure calculation

     Number of k-points >= 100: set verbosity='high' to print the bands.

     the Fermi energy is     8.0431 ev

     Writing output data file ./_ph0/pwscf.q_9/pwscf.save/
 
     [dfpt_tetra]  Dos(E_F)[/Ry] :   0.5411978E+01

     Electron-phonon                                                            

     bravais-lattice index     =            0
     lattice parameter (alat)  =       5.3778  a.u.
     unit-cell volume          =     109.9740 (a.u.)^3
     number of atoms/cell      =            1
     number of atomic types    =            1
     kinetic-energy cut-off    =      65.0000  Ry
     charge density cut-off    =     260.0000  Ry
     convergence threshold     =      1.0E-12
     beta                      =       0.7000
     number of iterations used =            4
     Exchange-correlation= PBE
                           (   1   4   3   4   0   0   0)


     celldm(1)=    5.37776  celldm(2)=    0.00000  celldm(3)=    0.00000
     celldm(4)=    0.00000  celldm(5)=    0.00000  celldm(6)=    0.00000

     crystal axes: (cart. coord. in units of alat)
               a(1) = (  0.0000  0.7071  0.7071 )  
               a(2) = (  0.7071  0.0000  0.7071 )  
               a(3) = (  0.7071  0.7071  0.0000 )  

     reciprocal axes: (cart. coord. in units 2 pi/alat)
               b(1) = ( -0.7071  0.7071  0.7071 )  
               b(2) = (  0.7071 -0.7071  0.7071 )  
               b(3) = (  0.7071  0.7071 -0.7071 )  


     Atoms inside the unit cell: 

     Cartesian axes

     site n.  atom      mass           positions (alat units)
        1     Al  26.9815   tau(    1) = (    0.00000    0.00000    0.00000  )

     Computing dynamical matrix for 
                    q = (   0.2651650   0.2651650   0.2651650 )

      6 Sym.Ops. (no q -> -q+G )


     G cutoff =  190.4658  (   7799 G-vectors)     FFT grid: ( 27, 27, 27)
     number of k points=  1632

     PseudoPot. # 1 for Al read from file:
     ./Al.pbe-n-nc.UPF
     MD5 check sum: 670bd543589c27b6508fb047b2733a83
     Pseudo is Norm-conserving + core correction, Zval =  3.0
     Generated using "atomic" code by A. Dal Corso v.5.0.99 svn rev. 10869
     Using radial grid of 1135 points,  2 beta functions with: 
                l(1) =   0
                l(2) =   1


     Atomic displacements:
     There are   2 irreducible representations

     Representation     1      1 modes -  To be done

     Representation     2      2 modes -  To be done


     PHONON       :   3m24.62s CPU   3m58.02s WALL

     Reading dVscf from file dv
     Reading dynamics matrix from file matdyn9

     [elph_tetra]   Lowest band which contains FS :          2
     [elph_tetra]  Highest band which contains FS :          3
     [elph_tetra]    # of bands which contains FS :          2

     Tetrahedron method
     DOS =  2.705989 states/spin/Ry/Unit Cell at Ef=  8.043061 eV
     double delta at Ef = 13.706873
     lambda(    1)=  0.0411   gamma=    1.89 GHz
     lambda(    2)=  0.0411   gamma=    1.89 GHz
     lambda(    3)=  0.2161   gamma=   44.72 GHz

     Number of q in the star =    8
     List of q in the star:
          1   0.265165043   0.265165043   0.265165043
          2   0.265165043  -0.265165043   0.265165043
          3  -0.265165043   0.265165043   0.265165043
          4  -0.265165043  -0.265165043  -0.265165043
          5   0.265165043   0.265165043  -0.265165043
          6  -0.265165043  -0.265165043   0.265165043
          7  -0.265165043   0.265165043  -0.265165043
          8   0.265165043  -0.265165043  -0.265165043

     Calculation of q =   -0.2651650  -0.2651650   0.7954951
     [opt_tetra]  Optimized tetrahedron method is used.

     G-vector sticks info
     --------------------
     sticks:   dense  smooth     PW     G-vecs:    dense   smooth      PW
     Sum         511     511    199                 7799     7799    1917


     Title: 
     Electron-phonon                                                            


     bravais-lattice index     =            0
     lattice parameter (alat)  =       5.3778  a.u.
     unit-cell volume          =     109.9740 (a.u.)^3
     number of atoms/cell      =            1
     number of atomic types    =            1
     number of electrons       =         3.00
     number of Kohn-Sham states=            6
     kinetic-energy cutoff     =      65.0000  Ry
     charge density cutoff     =     260.0000  Ry
     Exchange-correlation= PBE
                           (   1   4   3   4   0   0   0)

     celldm(1)=   5.377763  celldm(2)=   0.000000  celldm(3)=   0.000000
     celldm(4)=   0.000000  celldm(5)=   0.000000  celldm(6)=   0.000000

     crystal axes: (cart. coord. in units of alat)
               a(1) = (   0.000000   0.707107   0.707107 )  
               a(2) = (   0.707107   0.000000   0.707107 )  
               a(3) = (   0.707107   0.707107   0.000000 )  

     reciprocal axes: (cart. coord. in units 2 pi/alat)
               b(1) = ( -0.707107  0.707107  0.707107 )  
               b(2) = (  0.707107 -0.707107  0.707107 )  
               b(3) = (  0.707107  0.707107 -0.707107 )  


     PseudoPot. # 1 for Al read from file:
     ./Al.pbe-n-nc.UPF
     MD5 check sum: 670bd543589c27b6508fb047b2733a83
     Pseudo is Norm-conserving + core correction, Zval =  3.0
     Generated using "atomic" code by A. Dal Corso v.5.0.99 svn rev. 10869
     Using radial grid of 1135 points,  2 beta functions with: 
                l(1) =   0
                l(2) =   1

     atomic species   valence    mass     pseudopotential
        Al             3.00    26.98154     Al( 1.00)

     48 Sym. Ops., with inversion, found



   Cartesian axes

     site n.     atom                  positions (alat units)
         1           Al  tau(   1) = (   0.0000000   0.0000000   0.0000000  )

     number of k points=  4352 (tetrahedron method)

     Number of k-points >= 100: set verbosity='high' to print them.

     Dense  grid:     7799 G-vectors     FFT dimensions: (  27,  27,  27)

     Estimated max dynamical RAM per process >       3.41 MB

     Estimated total dynamical RAM >      98.92 MB

     Check: negative core charge=   -0.000002

     The potential is recalculated from file :
     ./_ph0/pwscf.q_10/pwscf.save/charge-density

     Starting wfcs are    4 atomic +    2 random wfcs

     Band Structure Calculation
     Davidson diagonalization with overlap

     ethr =  3.33E-10,  avg # of iterations = 15.0

     total cpu time spent up to now is      234.6 secs

     End of band structure calculation

     Number of k-points >= 100: set verbosity='high' to print the bands.

     the Fermi energy is     8.0431 ev

     Writing output data file ./_ph0/pwscf.q_10/pwscf.save/
 
     [dfpt_tetra]  Dos(E_F)[/Ry] :   0.5411978E+01

     Electron-phonon                                                            

     bravais-lattice index     =            0
     lattice parameter (alat)  =       5.3778  a.u.
     unit-cell volume          =     109.9740 (a.u.)^3
     number of atoms/cell      =            1
     number of atomic types    =            1
     kinetic-energy cut-off    =      65.0000  Ry
     charge density cut-off    =     260.0000  Ry
     convergence threshold     =      1.0E-12
     beta                      =       0.7000
     number of iterations used =            4
     Exchange-correlation= PBE
                           (   1   4   3   4   0   0   0)


     celldm(1)=    5.37776  celldm(2)=    0.00000  celldm(3)=    0.00000
     celldm(4)=    0.00000  celldm(5)=    0.00000  celldm(6)=    0.00000

     crystal axes: (cart. coord. in units of alat)
               a(1) = (  0.0000  0.7071  0.7071 )  
               a(2) = (  0.7071  0.0000  0.7071 )  
               a(3) = (  0.7071  0.7071  0.0000 )  

     reciprocal axes: (cart. coord. in units 2 pi/alat)
               b(1) = ( -0.7071  0.7071  0.7071 )  
               b(2) = (  0.7071 -0.7071  0.7071 )  
               b(3) = (  0.7071  0.7071 -0.7071 )  


     Atoms inside the unit cell: 

     Cartesian axes

     site n.  atom      mass           positions (alat units)
        1     Al  26.9815   tau(    1) = (    0.00000    0.00000    0.00000  )

     Computing dynamical matrix for 
                    q = (  -0.2651650  -0.2651650   0.7954951 )

      2 Sym.Ops. (no q -> -q+G )


     G cutoff =  190.4658  (   7799 G-vectors)     FFT grid: ( 27, 27, 27)
     number of k points=  4352

     PseudoPot. # 1 for Al read from file:
     ./Al.pbe-n-nc.UPF
     MD5 check sum: 670bd543589c27b6508fb047b2733a83
     Pseudo is Norm-conserving + core correction, Zval =  3.0
     Generated using "atomic" code by A. Dal Corso v.5.0.99 svn rev. 10869
     Using radial grid of 1135 points,  2 beta functions with: 
                l(1) =   0
                l(2) =   1


     Atomic displacements:
     There are   3 irreducible representations

     Representation     1      1 modes -  To be done

     Representation     2      1 modes -  To be done

     Representation     3      1 modes -  To be done


     PHONON       :   3m45.11s CPU   4m21.65s WALL

     Reading dVscf from file dv
     Reading dynamics matrix from file matdyn10

     [elph_tetra]   Lowest band which contains FS :          2
     [elph_tetra]  Highest band which contains FS :          3
     [elph_tetra]    # of bands which contains FS :          2

     Tetrahedron method
     DOS =  2.705989 states/spin/Ry/Unit Cell at Ef=  8.043061 eV
     double delta at Ef = 12.964546
     lambda(    1)=  0.0451   gamma=    3.19 GHz
     lambda(    2)=  0.1403   gamma=   19.86 GHz
     lambda(    3)=  0.1620   gamma=   34.33 GHz

     Number of q in the star =   24
     List of q in the star:
          1  -0.265165043  -0.265165043   0.795495129
          2   0.795495129  -0.265165043  -0.265165043
          3  -0.265165043   0.795495129  -0.265165043
          4  -0.265165043   0.265165043   0.795495129
          5   0.265165043  -0.265165043   0.795495129
          6   0.795495129   0.265165043  -0.265165043
          7  -0.795495129   0.265165043   0.265165043
          8   0.795495129  -0.265165043   0.265165043
          9  -0.795495129  -0.265165043  -0.265165043
         10   0.265165043   0.795495129  -0.265165043
         11   0.265165043  -0.795495129   0.265165043
         12  -0.265165043   0.795495129   0.265165043
         13  -0.265165043  -0.795495129  -0.265165043
         14   0.265165043   0.265165043   0.795495129
         15   0.265165043   0.795495129   0.265165043
         16  -0.265165043  -0.795495129   0.265165043
         17   0.265165043  -0.795495129  -0.265165043
         18   0.265165043  -0.265165043  -0.795495129
         19   0.795495129   0.265165043   0.265165043
         20  -0.795495129   0.265165043  -0.265165043
         21  -0.795495129  -0.265165043   0.265165043
         22   0.265165043   0.265165043  -0.795495129
         23  -0.265165043  -0.265165043  -0.795495129
         24  -0.265165043   0.265165043  -0.795495129

     init_run     :      1.59s CPU      1.92s WALL (      10 calls)
     electrons    :    171.92s CPU    206.29s WALL (      10 calls)

     Called by init_run:
     wfcinit      :      0.00s CPU      0.00s WALL (      10 calls)
     potinit      :      0.20s CPU      0.24s WALL (      10 calls)
     hinit0       :      0.94s CPU      0.95s WALL (      10 calls)

     Called by electrons:
     c_bands      :    162.04s CPU    196.31s WALL (      10 calls)
     v_of_rho     :      0.17s CPU      0.20s WALL (      11 calls)

     Called by c_bands:
     init_us_2    :      0.90s CPU      1.00s WALL (    4730 calls)
     cegterg      :    121.01s CPU    121.83s WALL (    1757 calls)

     Called by sum_band:

     Called by *egterg:
     h_psi        :    105.43s CPU    106.40s WALL (   27965 calls)
     g_psi        :      0.61s CPU      0.61s WALL (   24612 calls)
     cdiaghg      :      3.08s CPU      3.11s WALL (   26208 calls)

     Called by h_psi:
     h_psi:calbec :      1.36s CPU      1.37s WALL (   27965 calls)
     vloc_psi     :    102.55s CPU    103.51s WALL (   27965 calls)
     add_vuspsi   :      1.22s CPU      1.23s WALL (   27965 calls)

     General routines
     calbec       :      1.51s CPU      1.56s WALL (   31157 calls)
     fft          :      0.08s CPU      0.09s WALL (     151 calls)
     ffts         :      1.51s CPU      1.53s WALL (    2394 calls)
     fftw         :    113.07s CPU    114.14s WALL (  272332 calls)
     davcio       :      0.24s CPU      0.63s WALL (    7895 calls)

     Parallel routines

     PHONON       :   3m47.12s CPU   4m23.68s WALL

     INITIALIZATION: 
     phq_setup    :      0.93s CPU      1.12s WALL (      10 calls)
     phq_init     :      4.25s CPU      4.44s WALL (      10 calls)

     phq_init     :      4.25s CPU      4.44s WALL (      10 calls)
     set_drhoc    :      1.90s CPU      1.91s WALL (      10 calls)
     init_vloc    :      0.03s CPU      0.03s WALL (      11 calls)
     init_us_1    :      0.43s CPU      0.43s WALL (      11 calls)




     dvqpsi_us    :     15.55s CPU     15.76s WALL (    2394 calls)

     dvqpsi_us    :     15.55s CPU     15.76s WALL (    2394 calls)
     dvqpsi_us_on :      0.70s CPU      0.70s WALL (    2394 calls)


     h_psi        :    105.43s CPU    106.40s WALL (   27965 calls)

     h_psi        :    105.43s CPU    106.40s WALL (   27965 calls)
     add_vuspsi   :      1.22s CPU      1.23s WALL (   27965 calls)



      General routines
     calbec       :      1.51s CPU      1.56s WALL (   31157 calls)
     fft          :      0.08s CPU      0.09s WALL (     151 calls)
     ffts         :      1.51s CPU      1.53s WALL (    2394 calls)
     fftw         :    113.07s CPU    114.14s WALL (  272332 calls)
     davcio       :      0.24s CPU      0.63s WALL (    7895 calls)


     PHONON       :   3m47.12s CPU   4m23.68s WALL


   This run was terminated on:  20:35:40  22Nov2019            

=------------------------------------------------------------------------------=
   JOB DONE.
=------------------------------------------------------------------------------=
