
     Program PHONON v.6.4.1 starts on 22Nov2019 at 20:27:15 

     This program is part of the open-source Quantum ESPRESSO suite
     for quantum simulation of materials; please cite
         "P. Giannozzi et al., J. Phys.:Condens. Matter 21 395502 (2009);
         "P. Giannozzi et al., J. Phys.:Condens. Matter 29 465901 (2017);
          URL http://www.quantum-espresso.org", 
     in publications or presentations arising from this work. More details at
     http://www.quantum-espresso.org/quote

     Parallel version (MPI & OpenMP), running on      29 processor cores
     Number of MPI processes:                29
     Threads/MPI process:                     1

     MPI processes distributed on     1 nodes
     K-points division:     npool     =      29

     Reading xml data from directory:

     ./pwscf.save/

     IMPORTANT: XC functional enforced from input :
     Exchange-correlation= PBE
                           (   1   4   3   4   0   0   0)
     Any further DFT definition will be discarded
     Please, verify this is what you really want


     G-vector sticks info
     --------------------
     sticks:   dense  smooth     PW     G-vecs:    dense   smooth      PW
     Sum         511     511    163                 7799     7799    1411


     Check: negative core charge=   -0.000002
     Reading collected, re-writing distributed wavefunctions


     Dynamical matrices for ( 4, 4, 4)  uniform grid of q-points
     With a half shift
     (  10 q-points):
       N         xq(1)         xq(2)         xq(3) 
       1   0.088388348   0.088388348   0.088388348
       2   0.265165043   0.265165043  -0.088388348
       3  -0.265165043  -0.265165043   0.441941738
       4  -0.088388348  -0.088388348   0.265165043
       5   0.441941738   0.088388348   0.088388348
       6  -0.088388348  -0.441941738   0.618718434
       7   0.088388348  -0.265165043   0.441941738
       8  -0.618718434   0.088388348   0.088388348
       9   0.265165043   0.265165043   0.265165043
      10  -0.265165043  -0.265165043   0.795495129
     Because shifted q grid is used, q2r will not work !

     Calculation of q =    0.0883883   0.0883883   0.0883883

     Subspace diagonalization in iterative solution of the eigenvalue problem:
     a serial algorithm will be used

     [opt_tetra]  Optimized tetrahedron method is used.

     G-vector sticks info
     --------------------
     sticks:   dense  smooth     PW     G-vecs:    dense   smooth      PW
     Sum         511     511    163                 7799     7799    1459


     Title: 
     Phonon                                                                     


     bravais-lattice index     =            0
     lattice parameter (alat)  =       5.3778  a.u.
     unit-cell volume          =     109.9740 (a.u.)^3
     number of atoms/cell      =            1
     number of atomic types    =            1
     number of electrons       =         3.00
     number of Kohn-Sham states=            6
     kinetic-energy cutoff     =      65.0000  Ry
     charge density cutoff     =     260.0000  Ry
     Exchange-correlation= PBE
                           (   1   4   3   4   0   0   0)

     celldm(1)=   5.377763  celldm(2)=   0.000000  celldm(3)=   0.000000
     celldm(4)=   0.000000  celldm(5)=   0.000000  celldm(6)=   0.000000

     crystal axes: (cart. coord. in units of alat)
               a(1) = (   0.000000   0.707107   0.707107 )  
               a(2) = (   0.707107   0.000000   0.707107 )  
               a(3) = (   0.707107   0.707107   0.000000 )  

     reciprocal axes: (cart. coord. in units 2 pi/alat)
               b(1) = ( -0.707107  0.707107  0.707107 )  
               b(2) = (  0.707107 -0.707107  0.707107 )  
               b(3) = (  0.707107  0.707107 -0.707107 )  


     PseudoPot. # 1 for Al read from file:
     ./Al.pbe-n-nc.UPF
     MD5 check sum: 670bd543589c27b6508fb047b2733a83
     Pseudo is Norm-conserving + core correction, Zval =  3.0
     Generated using "atomic" code by A. Dal Corso v.5.0.99 svn rev. 10869
     Using radial grid of 1135 points,  2 beta functions with: 
                l(1) =   0
                l(2) =   1

     atomic species   valence    mass     pseudopotential
        Al             3.00    26.98154     Al( 1.00)

     48 Sym. Ops., with inversion, found



   Cartesian axes

     site n.     atom                  positions (alat units)
         1           Al  tau(   1) = (   0.0000000   0.0000000   0.0000000  )

     number of k points=   240 (tetrahedron method)

     Number of k-points >= 100: set verbosity='high' to print them.

     Dense  grid:     7799 G-vectors     FFT dimensions: (  27,  27,  27)

     Estimated max dynamical RAM per process >       3.41 MB

     Estimated total dynamical RAM >      98.77 MB

     Check: negative core charge=   -0.000002

     The potential is recalculated from file :
     ./_ph0/pwscf.q_1/pwscf.save/charge-density

     Starting wfcs are    4 atomic +    2 random wfcs

     Band Structure Calculation
     Davidson diagonalization with overlap

     ethr =  3.33E-10,  avg # of iterations = 15.3

     total cpu time spent up to now is        1.3 secs

     End of band structure calculation

     Number of k-points >= 100: set verbosity='high' to print the bands.

     the Fermi energy is     7.9694 ev

     Writing output data file ./_ph0/pwscf.q_1/pwscf.save/
 
     [dfpt_tetra]  Dos(E_F)[/Ry] :   0.4119245E+01

     Phonon                                                                     

     bravais-lattice index     =            0
     lattice parameter (alat)  =       5.3778  a.u.
     unit-cell volume          =     109.9740 (a.u.)^3
     number of atoms/cell      =            1
     number of atomic types    =            1
     kinetic-energy cut-off    =      65.0000  Ry
     charge density cut-off    =     260.0000  Ry
     convergence threshold     =      1.0E-15
     beta                      =       0.3000
     number of iterations used =            4
     Exchange-correlation= PBE
                           (   1   4   3   4   0   0   0)


     celldm(1)=    5.37776  celldm(2)=    0.00000  celldm(3)=    0.00000
     celldm(4)=    0.00000  celldm(5)=    0.00000  celldm(6)=    0.00000

     crystal axes: (cart. coord. in units of alat)
               a(1) = (  0.0000  0.7071  0.7071 )  
               a(2) = (  0.7071  0.0000  0.7071 )  
               a(3) = (  0.7071  0.7071  0.0000 )  

     reciprocal axes: (cart. coord. in units 2 pi/alat)
               b(1) = ( -0.7071  0.7071  0.7071 )  
               b(2) = (  0.7071 -0.7071  0.7071 )  
               b(3) = (  0.7071  0.7071 -0.7071 )  


     Atoms inside the unit cell: 

     Cartesian axes

     site n.  atom      mass           positions (alat units)
        1     Al  26.9815   tau(    1) = (    0.00000    0.00000    0.00000  )

     Computing dynamical matrix for 
                    q = (   0.0883883   0.0883883   0.0883883 )

      6 Sym.Ops. (no q -> -q+G )


     G cutoff =  190.4658  (   7799 G-vectors)     FFT grid: ( 27, 27, 27)
     number of k points=   240

     PseudoPot. # 1 for Al read from file:
     ./Al.pbe-n-nc.UPF
     MD5 check sum: 670bd543589c27b6508fb047b2733a83
     Pseudo is Norm-conserving + core correction, Zval =  3.0
     Generated using "atomic" code by A. Dal Corso v.5.0.99 svn rev. 10869
     Using radial grid of 1135 points,  2 beta functions with: 
                l(1) =   0
                l(2) =   1


     Atomic displacements:
     There are   2 irreducible representations

     Representation     1      1 modes -  To be done

     Representation     2      2 modes -  To be done



     Alpha used in Ewald sum =   2.8000
     PHONON       :      2.62s CPU      2.71s WALL



     Representation #  1 mode #   1

     Self-consistent Calculation

      iter #   1 total cpu time :     2.9 secs   av.it.:   1.6
      thresh= 1.000E-02 alpha_mix =  0.300 |ddv_scf|^2 =  2.233E-01

      iter #   2 total cpu time :     3.0 secs   av.it.:   2.3
      thresh= 1.000E-02 alpha_mix =  0.300 |ddv_scf|^2 =  2.184E+01

      iter #   3 total cpu time :     3.2 secs   av.it.:   2.2
      thresh= 1.000E-02 alpha_mix =  0.300 |ddv_scf|^2 =  2.073E-05

      iter #   4 total cpu time :     3.4 secs   av.it.:   1.8
      thresh= 4.553E-04 alpha_mix =  0.300 |ddv_scf|^2 =  2.728E-07

      iter #   5 total cpu time :     3.5 secs   av.it.:   2.5
      thresh= 5.223E-05 alpha_mix =  0.300 |ddv_scf|^2 =  2.040E-07

      iter #   6 total cpu time :     3.7 secs   av.it.:   1.5
      thresh= 4.516E-05 alpha_mix =  0.300 |ddv_scf|^2 =  7.078E-08

      iter #   7 total cpu time :     3.8 secs   av.it.:   1.6
      thresh= 2.660E-05 alpha_mix =  0.300 |ddv_scf|^2 =  4.045E-10

      iter #   8 total cpu time :     4.0 secs   av.it.:   2.7
      thresh= 2.011E-06 alpha_mix =  0.300 |ddv_scf|^2 =  8.048E-12

      iter #   9 total cpu time :     4.1 secs   av.it.:   2.4
      thresh= 2.837E-07 alpha_mix =  0.300 |ddv_scf|^2 =  2.421E-12

      iter #  10 total cpu time :     4.3 secs   av.it.:   2.2
      thresh= 1.556E-07 alpha_mix =  0.300 |ddv_scf|^2 =  1.456E-11

      iter #  11 total cpu time :     4.5 secs   av.it.:   1.8
      thresh= 3.815E-07 alpha_mix =  0.300 |ddv_scf|^2 =  4.942E-14

      iter #  12 total cpu time :     4.6 secs   av.it.:   2.5
      thresh= 2.223E-08 alpha_mix =  0.300 |ddv_scf|^2 =  1.995E-12

      iter #  13 total cpu time :     4.8 secs   av.it.:   1.4
      thresh= 1.413E-07 alpha_mix =  0.300 |ddv_scf|^2 =  2.105E-14

      iter #  14 total cpu time :     5.0 secs   av.it.:   2.2
      thresh= 1.451E-08 alpha_mix =  0.300 |ddv_scf|^2 =  2.164E-16

     End of self-consistent calculation

     Convergence has been achieved 


     Representation #  2 modes #   2  3

     Self-consistent Calculation

      iter #   1 total cpu time :     5.3 secs   av.it.:   1.0
      thresh= 1.000E-02 alpha_mix =  0.300 |ddv_scf|^2 =  3.161E-07

      iter #   2 total cpu time :     5.6 secs   av.it.:   2.3
      thresh= 5.622E-05 alpha_mix =  0.300 |ddv_scf|^2 =  1.486E-07

      iter #   3 total cpu time :     5.9 secs   av.it.:   2.5
      thresh= 3.855E-05 alpha_mix =  0.300 |ddv_scf|^2 =  7.350E-10

      iter #   4 total cpu time :     6.3 secs   av.it.:   2.7
      thresh= 2.711E-06 alpha_mix =  0.300 |ddv_scf|^2 =  9.579E-12

      iter #   5 total cpu time :     6.6 secs   av.it.:   2.4
      thresh= 3.095E-07 alpha_mix =  0.300 |ddv_scf|^2 =  1.278E-12

      iter #   6 total cpu time :     7.0 secs   av.it.:   2.6
      thresh= 1.131E-07 alpha_mix =  0.300 |ddv_scf|^2 =  8.633E-15

      iter #   7 total cpu time :     7.3 secs   av.it.:   2.7
      thresh= 9.291E-09 alpha_mix =  0.300 |ddv_scf|^2 =  2.191E-15

      iter #   8 total cpu time :     7.6 secs   av.it.:   2.6
      thresh= 4.681E-09 alpha_mix =  0.300 |ddv_scf|^2 =  1.854E-18

     End of self-consistent calculation

     Convergence has been achieved 

     Number of q in the star =    8
     List of q in the star:
          1   0.088388348   0.088388348   0.088388348
          2   0.088388348  -0.088388348   0.088388348
          3  -0.088388348   0.088388348   0.088388348
          4  -0.088388348  -0.088388348  -0.088388348
          5   0.088388348   0.088388348  -0.088388348
          6  -0.088388348  -0.088388348   0.088388348
          7  -0.088388348   0.088388348  -0.088388348
          8   0.088388348  -0.088388348  -0.088388348

     Diagonalizing the dynamical matrix

     q = (    0.088388348   0.088388348   0.088388348 ) 

 **************************************************************************
     freq (    1) =       2.015641 [THz] =      67.234536 [cm-1]
     freq (    2) =       2.015641 [THz] =      67.234536 [cm-1]
     freq (    3) =       3.715780 [THz] =     123.945094 [cm-1]
 **************************************************************************

     Calculation of q =    0.2651650   0.2651650  -0.0883883
     [opt_tetra]  Optimized tetrahedron method is used.

     G-vector sticks info
     --------------------
     sticks:   dense  smooth     PW     G-vecs:    dense   smooth      PW
     Sum         511     511    187                 7799     7799    1639


     Title: 
     Phonon                                                                     


     bravais-lattice index     =            0
     lattice parameter (alat)  =       5.3778  a.u.
     unit-cell volume          =     109.9740 (a.u.)^3
     number of atoms/cell      =            1
     number of atomic types    =            1
     number of electrons       =         3.00
     number of Kohn-Sham states=            6
     kinetic-energy cutoff     =      65.0000  Ry
     charge density cutoff     =     260.0000  Ry
     Exchange-correlation= PBE
                           (   1   4   3   4   0   0   0)

     celldm(1)=   5.377763  celldm(2)=   0.000000  celldm(3)=   0.000000
     celldm(4)=   0.000000  celldm(5)=   0.000000  celldm(6)=   0.000000

     crystal axes: (cart. coord. in units of alat)
               a(1) = (   0.000000   0.707107   0.707107 )  
               a(2) = (   0.707107   0.000000   0.707107 )  
               a(3) = (   0.707107   0.707107   0.000000 )  

     reciprocal axes: (cart. coord. in units 2 pi/alat)
               b(1) = ( -0.707107  0.707107  0.707107 )  
               b(2) = (  0.707107 -0.707107  0.707107 )  
               b(3) = (  0.707107  0.707107 -0.707107 )  


     PseudoPot. # 1 for Al read from file:
     ./Al.pbe-n-nc.UPF
     MD5 check sum: 670bd543589c27b6508fb047b2733a83
     Pseudo is Norm-conserving + core correction, Zval =  3.0
     Generated using "atomic" code by A. Dal Corso v.5.0.99 svn rev. 10869
     Using radial grid of 1135 points,  2 beta functions with: 
                l(1) =   0
                l(2) =   1

     atomic species   valence    mass     pseudopotential
        Al             3.00    26.98154     Al( 1.00)

     48 Sym. Ops., with inversion, found



   Cartesian axes

     site n.     atom                  positions (alat units)
         1           Al  tau(   1) = (   0.0000000   0.0000000   0.0000000  )

     number of k points=   576 (tetrahedron method)

     Number of k-points >= 100: set verbosity='high' to print them.

     Dense  grid:     7799 G-vectors     FFT dimensions: (  27,  27,  27)

     Estimated max dynamical RAM per process >       3.41 MB

     Estimated total dynamical RAM >      98.82 MB

     Check: negative core charge=   -0.000002

     The potential is recalculated from file :
     ./_ph0/pwscf.q_2/pwscf.save/charge-density

     Starting wfcs are    4 atomic +    2 random wfcs

     Band Structure Calculation
     Davidson diagonalization with overlap

     ethr =  3.33E-10,  avg # of iterations = 15.0

     total cpu time spent up to now is        3.9 secs

     End of band structure calculation

     Number of k-points >= 100: set verbosity='high' to print the bands.

     the Fermi energy is     7.9694 ev

     Writing output data file ./_ph0/pwscf.q_2/pwscf.save/
 
     [dfpt_tetra]  Dos(E_F)[/Ry] :   0.4119245E+01

     Phonon                                                                     

     bravais-lattice index     =            0
     lattice parameter (alat)  =       5.3778  a.u.
     unit-cell volume          =     109.9740 (a.u.)^3
     number of atoms/cell      =            1
     number of atomic types    =            1
     kinetic-energy cut-off    =      65.0000  Ry
     charge density cut-off    =     260.0000  Ry
     convergence threshold     =      1.0E-15
     beta                      =       0.3000
     number of iterations used =            4
     Exchange-correlation= PBE
                           (   1   4   3   4   0   0   0)


     celldm(1)=    5.37776  celldm(2)=    0.00000  celldm(3)=    0.00000
     celldm(4)=    0.00000  celldm(5)=    0.00000  celldm(6)=    0.00000

     crystal axes: (cart. coord. in units of alat)
               a(1) = (  0.0000  0.7071  0.7071 )  
               a(2) = (  0.7071  0.0000  0.7071 )  
               a(3) = (  0.7071  0.7071  0.0000 )  

     reciprocal axes: (cart. coord. in units 2 pi/alat)
               b(1) = ( -0.7071  0.7071  0.7071 )  
               b(2) = (  0.7071 -0.7071  0.7071 )  
               b(3) = (  0.7071  0.7071 -0.7071 )  


     Atoms inside the unit cell: 

     Cartesian axes

     site n.  atom      mass           positions (alat units)
        1     Al  26.9815   tau(    1) = (    0.00000    0.00000    0.00000  )

     Computing dynamical matrix for 
                    q = (   0.2651650   0.2651650  -0.0883883 )

      2 Sym.Ops. (no q -> -q+G )


     G cutoff =  190.4658  (   7799 G-vectors)     FFT grid: ( 27, 27, 27)
     number of k points=   576

     PseudoPot. # 1 for Al read from file:
     ./Al.pbe-n-nc.UPF
     MD5 check sum: 670bd543589c27b6508fb047b2733a83
     Pseudo is Norm-conserving + core correction, Zval =  3.0
     Generated using "atomic" code by A. Dal Corso v.5.0.99 svn rev. 10869
     Using radial grid of 1135 points,  2 beta functions with: 
                l(1) =   0
                l(2) =   1


     Atomic displacements:
     There are   3 irreducible representations

     Representation     1      1 modes -  To be done

     Representation     2      1 modes -  To be done

     Representation     3      1 modes -  To be done



     Alpha used in Ewald sum =   2.8000
     PHONON       :     10.24s CPU     11.24s WALL



     Representation #  1 mode #   1

     Self-consistent Calculation

      iter #   1 total cpu time :    11.5 secs   av.it.:   1.5
      thresh= 1.000E-02 alpha_mix =  0.300 |ddv_scf|^2 =  5.706E-04

      iter #   2 total cpu time :    11.9 secs   av.it.:   1.9
      thresh= 2.389E-03 alpha_mix =  0.300 |ddv_scf|^2 =  5.184E-04

      iter #   3 total cpu time :    12.2 secs   av.it.:   1.7
      thresh= 2.277E-03 alpha_mix =  0.300 |ddv_scf|^2 =  4.130E-07

      iter #   4 total cpu time :    12.5 secs   av.it.:   2.3
      thresh= 6.427E-05 alpha_mix =  0.300 |ddv_scf|^2 =  6.817E-08

      iter #   5 total cpu time :    12.8 secs   av.it.:   2.1
      thresh= 2.611E-05 alpha_mix =  0.300 |ddv_scf|^2 =  2.550E-09

      iter #   6 total cpu time :    13.2 secs   av.it.:   2.4
      thresh= 5.050E-06 alpha_mix =  0.300 |ddv_scf|^2 =  4.810E-11

      iter #   7 total cpu time :    13.5 secs   av.it.:   2.4
      thresh= 6.935E-07 alpha_mix =  0.300 |ddv_scf|^2 =  2.622E-11

      iter #   8 total cpu time :    13.8 secs   av.it.:   2.0
      thresh= 5.120E-07 alpha_mix =  0.300 |ddv_scf|^2 =  1.275E-11

      iter #   9 total cpu time :    14.2 secs   av.it.:   2.2
      thresh= 3.571E-07 alpha_mix =  0.300 |ddv_scf|^2 =  3.279E-12

      iter #  10 total cpu time :    14.5 secs   av.it.:   2.1
      thresh= 1.811E-07 alpha_mix =  0.300 |ddv_scf|^2 =  5.014E-14

      iter #  11 total cpu time :    14.8 secs   av.it.:   2.6
      thresh= 2.239E-08 alpha_mix =  0.300 |ddv_scf|^2 =  1.578E-14

      iter #  12 total cpu time :    15.2 secs   av.it.:   2.3
      thresh= 1.256E-08 alpha_mix =  0.300 |ddv_scf|^2 =  2.876E-15

      iter #  13 total cpu time :    15.5 secs   av.it.:   2.4
      thresh= 5.363E-09 alpha_mix =  0.300 |ddv_scf|^2 =  2.196E-16

     End of self-consistent calculation

     Convergence has been achieved 


     Representation #  2 mode #   2

     Self-consistent Calculation

      iter #   1 total cpu time :    15.8 secs   av.it.:   1.2
      thresh= 1.000E-02 alpha_mix =  0.300 |ddv_scf|^2 =  9.211E-05

      iter #   2 total cpu time :    16.1 secs   av.it.:   1.9
      thresh= 9.598E-04 alpha_mix =  0.300 |ddv_scf|^2 =  8.342E-05

      iter #   3 total cpu time :    16.4 secs   av.it.:   1.7
      thresh= 9.134E-04 alpha_mix =  0.300 |ddv_scf|^2 =  3.947E-07

      iter #   4 total cpu time :    16.7 secs   av.it.:   2.3
      thresh= 6.283E-05 alpha_mix =  0.300 |ddv_scf|^2 =  7.748E-09

      iter #   5 total cpu time :    17.1 secs   av.it.:   2.4
      thresh= 8.802E-06 alpha_mix =  0.300 |ddv_scf|^2 =  5.482E-10

      iter #   6 total cpu time :    17.4 secs   av.it.:   2.5
      thresh= 2.341E-06 alpha_mix =  0.300 |ddv_scf|^2 =  2.419E-11

      iter #   7 total cpu time :    17.7 secs   av.it.:   2.6
      thresh= 4.919E-07 alpha_mix =  0.300 |ddv_scf|^2 =  1.573E-12

      iter #   8 total cpu time :    18.1 secs   av.it.:   2.4
      thresh= 1.254E-07 alpha_mix =  0.300 |ddv_scf|^2 =  5.352E-13

      iter #   9 total cpu time :    18.4 secs   av.it.:   2.1
      thresh= 7.316E-08 alpha_mix =  0.300 |ddv_scf|^2 =  1.012E-13

      iter #  10 total cpu time :    18.7 secs   av.it.:   2.3
      thresh= 3.181E-08 alpha_mix =  0.300 |ddv_scf|^2 =  5.014E-14

      iter #  11 total cpu time :    19.0 secs   av.it.:   2.2
      thresh= 2.239E-08 alpha_mix =  0.300 |ddv_scf|^2 =  2.803E-15

      iter #  12 total cpu time :    19.4 secs   av.it.:   2.4
      thresh= 5.294E-09 alpha_mix =  0.300 |ddv_scf|^2 =  9.845E-16

     End of self-consistent calculation

     Convergence has been achieved 


     Representation #  3 mode #   3

     Self-consistent Calculation

      iter #   1 total cpu time :    19.7 secs   av.it.:   1.0
      thresh= 1.000E-02 alpha_mix =  0.300 |ddv_scf|^2 =  1.225E-06

      iter #   2 total cpu time :    20.0 secs   av.it.:   2.0
      thresh= 1.107E-04 alpha_mix =  0.300 |ddv_scf|^2 =  5.769E-07

      iter #   3 total cpu time :    20.3 secs   av.it.:   2.1
      thresh= 7.596E-05 alpha_mix =  0.300 |ddv_scf|^2 =  3.103E-09

      iter #   4 total cpu time :    20.6 secs   av.it.:   2.6
      thresh= 5.570E-06 alpha_mix =  0.300 |ddv_scf|^2 =  3.468E-11

      iter #   5 total cpu time :    21.0 secs   av.it.:   2.2
      thresh= 5.889E-07 alpha_mix =  0.300 |ddv_scf|^2 =  6.185E-12

      iter #   6 total cpu time :    21.3 secs   av.it.:   2.4
      thresh= 2.487E-07 alpha_mix =  0.300 |ddv_scf|^2 =  2.469E-14

      iter #   7 total cpu time :    21.6 secs   av.it.:   2.5
      thresh= 1.571E-08 alpha_mix =  0.300 |ddv_scf|^2 =  6.938E-15

      iter #   8 total cpu time :    22.0 secs   av.it.:   2.3
      thresh= 8.329E-09 alpha_mix =  0.300 |ddv_scf|^2 =  2.497E-17

     End of self-consistent calculation

     Convergence has been achieved 

     Number of q in the star =   24
     List of q in the star:
          1   0.265165043   0.265165043  -0.088388348
          2  -0.088388348   0.265165043   0.265165043
          3   0.265165043  -0.088388348   0.265165043
          4   0.265165043  -0.265165043  -0.088388348
          5  -0.265165043   0.265165043  -0.088388348
          6  -0.088388348  -0.265165043   0.265165043
          7   0.088388348  -0.265165043  -0.265165043
          8  -0.088388348   0.265165043  -0.265165043
          9   0.088388348   0.265165043   0.265165043
         10  -0.265165043  -0.088388348   0.265165043
         11  -0.265165043   0.088388348  -0.265165043
         12   0.265165043  -0.088388348  -0.265165043
         13   0.265165043   0.088388348   0.265165043
         14  -0.265165043  -0.265165043  -0.088388348
         15  -0.265165043  -0.088388348  -0.265165043
         16   0.265165043   0.088388348  -0.265165043
         17  -0.265165043   0.088388348   0.265165043
         18  -0.265165043   0.265165043   0.088388348
         19  -0.088388348  -0.265165043  -0.265165043
         20   0.088388348  -0.265165043   0.265165043
         21   0.088388348   0.265165043  -0.265165043
         22  -0.265165043  -0.265165043   0.088388348
         23   0.265165043   0.265165043   0.088388348
         24   0.265165043  -0.265165043   0.088388348

     Diagonalizing the dynamical matrix

     q = (    0.265165043   0.265165043  -0.088388348 ) 

 **************************************************************************
     freq (    1) =       4.008725 [THz] =     133.716683 [cm-1]
     freq (    2) =       4.756522 [THz] =     158.660495 [cm-1]
     freq (    3) =       7.747567 [THz] =     258.431028 [cm-1]
 **************************************************************************

     Calculation of q =   -0.2651650  -0.2651650   0.4419417
     [opt_tetra]  Optimized tetrahedron method is used.

     G-vector sticks info
     --------------------
     sticks:   dense  smooth     PW     G-vecs:    dense   smooth      PW
     Sum         511     511    199                 7799     7799    1759


     Title: 
     Phonon                                                                     


     bravais-lattice index     =            0
     lattice parameter (alat)  =       5.3778  a.u.
     unit-cell volume          =     109.9740 (a.u.)^3
     number of atoms/cell      =            1
     number of atomic types    =            1
     number of electrons       =         3.00
     number of Kohn-Sham states=            6
     kinetic-energy cutoff     =      65.0000  Ry
     charge density cutoff     =     260.0000  Ry
     Exchange-correlation= PBE
                           (   1   4   3   4   0   0   0)

     celldm(1)=   5.377763  celldm(2)=   0.000000  celldm(3)=   0.000000
     celldm(4)=   0.000000  celldm(5)=   0.000000  celldm(6)=   0.000000

     crystal axes: (cart. coord. in units of alat)
               a(1) = (   0.000000   0.707107   0.707107 )  
               a(2) = (   0.707107   0.000000   0.707107 )  
               a(3) = (   0.707107   0.707107   0.000000 )  

     reciprocal axes: (cart. coord. in units 2 pi/alat)
               b(1) = ( -0.707107  0.707107  0.707107 )  
               b(2) = (  0.707107 -0.707107  0.707107 )  
               b(3) = (  0.707107  0.707107 -0.707107 )  


     PseudoPot. # 1 for Al read from file:
     ./Al.pbe-n-nc.UPF
     MD5 check sum: 670bd543589c27b6508fb047b2733a83
     Pseudo is Norm-conserving + core correction, Zval =  3.0
     Generated using "atomic" code by A. Dal Corso v.5.0.99 svn rev. 10869
     Using radial grid of 1135 points,  2 beta functions with: 
                l(1) =   0
                l(2) =   1

     atomic species   valence    mass     pseudopotential
        Al             3.00    26.98154     Al( 1.00)

     48 Sym. Ops., with inversion, found



   Cartesian axes

     site n.     atom                  positions (alat units)
         1           Al  tau(   1) = (   0.0000000   0.0000000   0.0000000  )

     number of k points=   576 (tetrahedron method)

     Number of k-points >= 100: set verbosity='high' to print them.

     Dense  grid:     7799 G-vectors     FFT dimensions: (  27,  27,  27)

     Estimated max dynamical RAM per process >       3.41 MB

     Estimated total dynamical RAM >      98.86 MB

     Check: negative core charge=   -0.000002

     The potential is recalculated from file :
     ./_ph0/pwscf.q_3/pwscf.save/charge-density

     Starting wfcs are    4 atomic +    2 random wfcs

     Band Structure Calculation
     Davidson diagonalization with overlap

     ethr =  3.33E-10,  avg # of iterations = 15.0

     total cpu time spent up to now is        6.5 secs

     End of band structure calculation

     Number of k-points >= 100: set verbosity='high' to print the bands.

     the Fermi energy is     7.9694 ev

     Writing output data file ./_ph0/pwscf.q_3/pwscf.save/
 
     [dfpt_tetra]  Dos(E_F)[/Ry] :   0.4119245E+01

     Phonon                                                                     

     bravais-lattice index     =            0
     lattice parameter (alat)  =       5.3778  a.u.
     unit-cell volume          =     109.9740 (a.u.)^3
     number of atoms/cell      =            1
     number of atomic types    =            1
     kinetic-energy cut-off    =      65.0000  Ry
     charge density cut-off    =     260.0000  Ry
     convergence threshold     =      1.0E-15
     beta                      =       0.3000
     number of iterations used =            4
     Exchange-correlation= PBE
                           (   1   4   3   4   0   0   0)


     celldm(1)=    5.37776  celldm(2)=    0.00000  celldm(3)=    0.00000
     celldm(4)=    0.00000  celldm(5)=    0.00000  celldm(6)=    0.00000

     crystal axes: (cart. coord. in units of alat)
               a(1) = (  0.0000  0.7071  0.7071 )  
               a(2) = (  0.7071  0.0000  0.7071 )  
               a(3) = (  0.7071  0.7071  0.0000 )  

     reciprocal axes: (cart. coord. in units 2 pi/alat)
               b(1) = ( -0.7071  0.7071  0.7071 )  
               b(2) = (  0.7071 -0.7071  0.7071 )  
               b(3) = (  0.7071  0.7071 -0.7071 )  


     Atoms inside the unit cell: 

     Cartesian axes

     site n.  atom      mass           positions (alat units)
        1     Al  26.9815   tau(    1) = (    0.00000    0.00000    0.00000  )

     Computing dynamical matrix for 
                    q = (  -0.2651650  -0.2651650   0.4419417 )

      2 Sym.Ops. (no q -> -q+G )


     G cutoff =  190.4658  (   7799 G-vectors)     FFT grid: ( 27, 27, 27)
     number of k points=   576

     PseudoPot. # 1 for Al read from file:
     ./Al.pbe-n-nc.UPF
     MD5 check sum: 670bd543589c27b6508fb047b2733a83
     Pseudo is Norm-conserving + core correction, Zval =  3.0
     Generated using "atomic" code by A. Dal Corso v.5.0.99 svn rev. 10869
     Using radial grid of 1135 points,  2 beta functions with: 
                l(1) =   0
                l(2) =   1


     Atomic displacements:
     There are   3 irreducible representations

     Representation     1      1 modes -  To be done

     Representation     2      1 modes -  To be done

     Representation     3      1 modes -  To be done



     Alpha used in Ewald sum =   2.8000
     PHONON       :     22.24s CPU     25.50s WALL



     Representation #  1 mode #   1

     Self-consistent Calculation

      iter #   1 total cpu time :    25.8 secs   av.it.:   1.3
      thresh= 1.000E-02 alpha_mix =  0.300 |ddv_scf|^2 =  3.401E-05

      iter #   2 total cpu time :    26.1 secs   av.it.:   2.0
      thresh= 5.831E-04 alpha_mix =  0.300 |ddv_scf|^2 =  1.008E-06

      iter #   3 total cpu time :    26.4 secs   av.it.:   2.1
      thresh= 1.004E-04 alpha_mix =  0.300 |ddv_scf|^2 =  2.752E-07

      iter #   4 total cpu time :    26.7 secs   av.it.:   2.0
      thresh= 5.246E-05 alpha_mix =  0.300 |ddv_scf|^2 =  6.514E-08

      iter #   5 total cpu time :    27.1 secs   av.it.:   2.1
      thresh= 2.552E-05 alpha_mix =  0.300 |ddv_scf|^2 =  9.671E-11

      iter #   6 total cpu time :    27.4 secs   av.it.:   2.6
      thresh= 9.834E-07 alpha_mix =  0.300 |ddv_scf|^2 =  2.338E-11

      iter #   7 total cpu time :    27.7 secs   av.it.:   2.2
      thresh= 4.836E-07 alpha_mix =  0.300 |ddv_scf|^2 =  6.413E-14

      iter #   8 total cpu time :    28.1 secs   av.it.:   2.9
      thresh= 2.532E-08 alpha_mix =  0.300 |ddv_scf|^2 =  4.005E-15

      iter #   9 total cpu time :    28.4 secs   av.it.:   2.4
      thresh= 6.329E-09 alpha_mix =  0.300 |ddv_scf|^2 =  4.469E-16

     End of self-consistent calculation

     Convergence has been achieved 


     Representation #  2 mode #   2

     Self-consistent Calculation

      iter #   1 total cpu time :    28.7 secs   av.it.:   1.0
      thresh= 1.000E-02 alpha_mix =  0.300 |ddv_scf|^2 =  3.313E-06

      iter #   2 total cpu time :    29.1 secs   av.it.:   2.1
      thresh= 1.820E-04 alpha_mix =  0.300 |ddv_scf|^2 =  5.669E-07

      iter #   3 total cpu time :    29.4 secs   av.it.:   2.0
      thresh= 7.529E-05 alpha_mix =  0.300 |ddv_scf|^2 =  2.288E-07

      iter #   4 total cpu time :    29.7 secs   av.it.:   2.1
      thresh= 4.783E-05 alpha_mix =  0.300 |ddv_scf|^2 =  3.270E-09

      iter #   5 total cpu time :    30.0 secs   av.it.:   2.5
      thresh= 5.719E-06 alpha_mix =  0.300 |ddv_scf|^2 =  2.324E-10

      iter #   6 total cpu time :    30.4 secs   av.it.:   2.6
      thresh= 1.524E-06 alpha_mix =  0.300 |ddv_scf|^2 =  4.857E-12

      iter #   7 total cpu time :    30.7 secs   av.it.:   2.5
      thresh= 2.204E-07 alpha_mix =  0.300 |ddv_scf|^2 =  1.391E-12

      iter #   8 total cpu time :    31.0 secs   av.it.:   2.4
      thresh= 1.179E-07 alpha_mix =  0.300 |ddv_scf|^2 =  1.829E-14

      iter #   9 total cpu time :    31.4 secs   av.it.:   2.6
      thresh= 1.352E-08 alpha_mix =  0.300 |ddv_scf|^2 =  4.963E-15

      iter #  10 total cpu time :    31.7 secs   av.it.:   2.3
      thresh= 7.045E-09 alpha_mix =  0.300 |ddv_scf|^2 =  1.004E-15

      iter #  11 total cpu time :    32.3 secs   av.it.:   2.3
      thresh= 3.169E-09 alpha_mix =  0.300 |ddv_scf|^2 =  4.852E-17

     End of self-consistent calculation

     Convergence has been achieved 


     Representation #  3 mode #   3

     Self-consistent Calculation

      iter #   1 total cpu time :    32.6 secs   av.it.:   1.0
      thresh= 1.000E-02 alpha_mix =  0.300 |ddv_scf|^2 =  1.150E-06

      iter #   2 total cpu time :    32.9 secs   av.it.:   2.0
      thresh= 1.072E-04 alpha_mix =  0.300 |ddv_scf|^2 =  5.479E-07

      iter #   3 total cpu time :    33.4 secs   av.it.:   2.1
      thresh= 7.402E-05 alpha_mix =  0.300 |ddv_scf|^2 =  2.680E-09

      iter #   4 total cpu time :    33.7 secs   av.it.:   2.6
      thresh= 5.177E-06 alpha_mix =  0.300 |ddv_scf|^2 =  5.609E-11

      iter #   5 total cpu time :    34.1 secs   av.it.:   2.4
      thresh= 7.489E-07 alpha_mix =  0.300 |ddv_scf|^2 =  1.124E-11

      iter #   6 total cpu time :    34.4 secs   av.it.:   2.4
      thresh= 3.353E-07 alpha_mix =  0.300 |ddv_scf|^2 =  8.350E-14

      iter #   7 total cpu time :    34.7 secs   av.it.:   2.6
      thresh= 2.890E-08 alpha_mix =  0.300 |ddv_scf|^2 =  9.823E-15

      iter #   8 total cpu time :    35.1 secs   av.it.:   2.4
      thresh= 9.911E-09 alpha_mix =  0.300 |ddv_scf|^2 =  2.045E-17

     End of self-consistent calculation

     Convergence has been achieved 

     Number of q in the star =   24
     List of q in the star:
          1  -0.265165043  -0.265165043   0.441941738
          2   0.441941738  -0.265165043  -0.265165043
          3  -0.265165043   0.441941738  -0.265165043
          4  -0.265165043   0.265165043   0.441941738
          5   0.265165043  -0.265165043   0.441941738
          6   0.441941738   0.265165043  -0.265165043
          7  -0.441941738   0.265165043   0.265165043
          8   0.441941738  -0.265165043   0.265165043
          9  -0.441941738  -0.265165043  -0.265165043
         10   0.265165043   0.441941738  -0.265165043
         11   0.265165043  -0.441941738   0.265165043
         12  -0.265165043   0.441941738   0.265165043
         13  -0.265165043  -0.441941738  -0.265165043
         14   0.265165043   0.265165043   0.441941738
         15   0.265165043   0.441941738   0.265165043
         16  -0.265165043  -0.441941738   0.265165043
         17   0.265165043  -0.441941738  -0.265165043
         18   0.265165043  -0.265165043  -0.441941738
         19   0.441941738   0.265165043   0.265165043
         20  -0.441941738   0.265165043  -0.265165043
         21  -0.441941738  -0.265165043   0.265165043
         22   0.265165043   0.265165043  -0.441941738
         23  -0.265165043  -0.265165043  -0.441941738
         24  -0.265165043   0.265165043  -0.441941738

     Diagonalizing the dynamical matrix

     q = (   -0.265165043  -0.265165043   0.441941738 ) 

 **************************************************************************
     freq (    1) =       4.594827 [THz] =     153.266933 [cm-1]
     freq (    2) =       5.461181 [THz] =     182.165398 [cm-1]
     freq (    3) =       9.444163 [THz] =     315.023362 [cm-1]
 **************************************************************************

     Calculation of q =   -0.0883883  -0.0883883   0.2651650
     [opt_tetra]  Optimized tetrahedron method is used.

     G-vector sticks info
     --------------------
     sticks:   dense  smooth     PW     G-vecs:    dense   smooth      PW
     Sum         511     511    169                 7799     7799    1471


     Title: 
     Phonon                                                                     


     bravais-lattice index     =            0
     lattice parameter (alat)  =       5.3778  a.u.
     unit-cell volume          =     109.9740 (a.u.)^3
     number of atoms/cell      =            1
     number of atomic types    =            1
     number of electrons       =         3.00
     number of Kohn-Sham states=            6
     kinetic-energy cutoff     =      65.0000  Ry
     charge density cutoff     =     260.0000  Ry
     Exchange-correlation= PBE
                           (   1   4   3   4   0   0   0)

     celldm(1)=   5.377763  celldm(2)=   0.000000  celldm(3)=   0.000000
     celldm(4)=   0.000000  celldm(5)=   0.000000  celldm(6)=   0.000000

     crystal axes: (cart. coord. in units of alat)
               a(1) = (   0.000000   0.707107   0.707107 )  
               a(2) = (   0.707107   0.000000   0.707107 )  
               a(3) = (   0.707107   0.707107   0.000000 )  

     reciprocal axes: (cart. coord. in units 2 pi/alat)
               b(1) = ( -0.707107  0.707107  0.707107 )  
               b(2) = (  0.707107 -0.707107  0.707107 )  
               b(3) = (  0.707107  0.707107 -0.707107 )  


     PseudoPot. # 1 for Al read from file:
     ./Al.pbe-n-nc.UPF
     MD5 check sum: 670bd543589c27b6508fb047b2733a83
     Pseudo is Norm-conserving + core correction, Zval =  3.0
     Generated using "atomic" code by A. Dal Corso v.5.0.99 svn rev. 10869
     Using radial grid of 1135 points,  2 beta functions with: 
                l(1) =   0
                l(2) =   1

     atomic species   valence    mass     pseudopotential
        Al             3.00    26.98154     Al( 1.00)

     48 Sym. Ops., with inversion, found



   Cartesian axes

     site n.     atom                  positions (alat units)
         1           Al  tau(   1) = (   0.0000000   0.0000000   0.0000000  )

     number of k points=   576 (tetrahedron method)

     Number of k-points >= 100: set verbosity='high' to print them.

     Dense  grid:     7799 G-vectors     FFT dimensions: (  27,  27,  27)

     Estimated max dynamical RAM per process >       3.41 MB

     Estimated total dynamical RAM >      98.80 MB

     Check: negative core charge=   -0.000002

     The potential is recalculated from file :
     ./_ph0/pwscf.q_4/pwscf.save/charge-density

     Starting wfcs are    4 atomic +    2 random wfcs

     Band Structure Calculation
     Davidson diagonalization with overlap

     ethr =  3.33E-10,  avg # of iterations = 15.0

     total cpu time spent up to now is        9.2 secs

     End of band structure calculation

     Number of k-points >= 100: set verbosity='high' to print the bands.

     the Fermi energy is     7.9694 ev

     Writing output data file ./_ph0/pwscf.q_4/pwscf.save/
 
     [dfpt_tetra]  Dos(E_F)[/Ry] :   0.4119245E+01

     Phonon                                                                     

     bravais-lattice index     =            0
     lattice parameter (alat)  =       5.3778  a.u.
     unit-cell volume          =     109.9740 (a.u.)^3
     number of atoms/cell      =            1
     number of atomic types    =            1
     kinetic-energy cut-off    =      65.0000  Ry
     charge density cut-off    =     260.0000  Ry
     convergence threshold     =      1.0E-15
     beta                      =       0.3000
     number of iterations used =            4
     Exchange-correlation= PBE
                           (   1   4   3   4   0   0   0)


     celldm(1)=    5.37776  celldm(2)=    0.00000  celldm(3)=    0.00000
     celldm(4)=    0.00000  celldm(5)=    0.00000  celldm(6)=    0.00000

     crystal axes: (cart. coord. in units of alat)
               a(1) = (  0.0000  0.7071  0.7071 )  
               a(2) = (  0.7071  0.0000  0.7071 )  
               a(3) = (  0.7071  0.7071  0.0000 )  

     reciprocal axes: (cart. coord. in units 2 pi/alat)
               b(1) = ( -0.7071  0.7071  0.7071 )  
               b(2) = (  0.7071 -0.7071  0.7071 )  
               b(3) = (  0.7071  0.7071 -0.7071 )  


     Atoms inside the unit cell: 

     Cartesian axes

     site n.  atom      mass           positions (alat units)
        1     Al  26.9815   tau(    1) = (    0.00000    0.00000    0.00000  )

     Computing dynamical matrix for 
                    q = (  -0.0883883  -0.0883883   0.2651650 )

      2 Sym.Ops. (no q -> -q+G )


     G cutoff =  190.4658  (   7799 G-vectors)     FFT grid: ( 27, 27, 27)
     number of k points=   576

     PseudoPot. # 1 for Al read from file:
     ./Al.pbe-n-nc.UPF
     MD5 check sum: 670bd543589c27b6508fb047b2733a83
     Pseudo is Norm-conserving + core correction, Zval =  3.0
     Generated using "atomic" code by A. Dal Corso v.5.0.99 svn rev. 10869
     Using radial grid of 1135 points,  2 beta functions with: 
                l(1) =   0
                l(2) =   1


     Atomic displacements:
     There are   3 irreducible representations

     Representation     1      1 modes -  To be done

     Representation     2      1 modes -  To be done

     Representation     3      1 modes -  To be done



     Alpha used in Ewald sum =   2.8000
     PHONON       :     33.74s CPU     38.69s WALL



     Representation #  1 mode #   1

     Self-consistent Calculation

      iter #   1 total cpu time :    39.0 secs   av.it.:   1.5
      thresh= 1.000E-02 alpha_mix =  0.300 |ddv_scf|^2 =  3.080E-03

      iter #   2 total cpu time :    39.3 secs   av.it.:   1.9
      thresh= 5.550E-03 alpha_mix =  0.300 |ddv_scf|^2 =  1.514E-02

      iter #   3 total cpu time :    39.6 secs   av.it.:   1.6
      thresh= 1.000E-02 alpha_mix =  0.300 |ddv_scf|^2 =  4.537E-07

      iter #   4 total cpu time :    39.9 secs   av.it.:   2.3
      thresh= 6.736E-05 alpha_mix =  0.300 |ddv_scf|^2 =  2.086E-07

      iter #   5 total cpu time :    40.4 secs   av.it.:   2.1
      thresh= 4.567E-05 alpha_mix =  0.300 |ddv_scf|^2 =  1.083E-09

      iter #   6 total cpu time :    40.7 secs   av.it.:   2.5
      thresh= 3.290E-06 alpha_mix =  0.300 |ddv_scf|^2 =  9.538E-10

      iter #   7 total cpu time :    41.0 secs   av.it.:   2.1
      thresh= 3.088E-06 alpha_mix =  0.300 |ddv_scf|^2 =  8.733E-10

      iter #   8 total cpu time :    41.3 secs   av.it.:   1.7
      thresh= 2.955E-06 alpha_mix =  0.300 |ddv_scf|^2 =  2.278E-10

      iter #   9 total cpu time :    41.6 secs   av.it.:   1.9
      thresh= 1.509E-06 alpha_mix =  0.300 |ddv_scf|^2 =  8.395E-13

      iter #  10 total cpu time :    42.0 secs   av.it.:   2.8
      thresh= 9.163E-08 alpha_mix =  0.300 |ddv_scf|^2 =  1.293E-14

      iter #  11 total cpu time :    42.3 secs   av.it.:   2.6
      thresh= 1.137E-08 alpha_mix =  0.300 |ddv_scf|^2 =  2.144E-15

      iter #  12 total cpu time :    42.6 secs   av.it.:   2.5
      thresh= 4.631E-09 alpha_mix =  0.300 |ddv_scf|^2 =  2.814E-17

     End of self-consistent calculation

     Convergence has been achieved 


     Representation #  2 mode #   2

     Self-consistent Calculation

      iter #   1 total cpu time :    42.9 secs   av.it.:   1.4
      thresh= 1.000E-02 alpha_mix =  0.300 |ddv_scf|^2 =  9.923E-04

      iter #   2 total cpu time :    43.3 secs   av.it.:   1.8
      thresh= 3.150E-03 alpha_mix =  0.300 |ddv_scf|^2 =  4.871E-03

      iter #   3 total cpu time :    43.6 secs   av.it.:   1.6
      thresh= 6.980E-03 alpha_mix =  0.300 |ddv_scf|^2 =  4.719E-07

      iter #   4 total cpu time :    43.9 secs   av.it.:   2.4
      thresh= 6.870E-05 alpha_mix =  0.300 |ddv_scf|^2 =  1.856E-07

      iter #   5 total cpu time :    44.2 secs   av.it.:   2.2
      thresh= 4.308E-05 alpha_mix =  0.300 |ddv_scf|^2 =  1.100E-09

      iter #   6 total cpu time :    44.5 secs   av.it.:   2.7
      thresh= 3.317E-06 alpha_mix =  0.300 |ddv_scf|^2 =  2.136E-09

      iter #   7 total cpu time :    44.9 secs   av.it.:   2.0
      thresh= 4.622E-06 alpha_mix =  0.300 |ddv_scf|^2 =  1.617E-11

      iter #   8 total cpu time :    45.2 secs   av.it.:   2.4
      thresh= 4.021E-07 alpha_mix =  0.300 |ddv_scf|^2 =  3.324E-12

      iter #   9 total cpu time :    45.5 secs   av.it.:   2.2
      thresh= 1.823E-07 alpha_mix =  0.300 |ddv_scf|^2 =  2.360E-12

      iter #  10 total cpu time :    45.8 secs   av.it.:   2.2
      thresh= 1.536E-07 alpha_mix =  0.300 |ddv_scf|^2 =  4.438E-14

      iter #  11 total cpu time :    46.2 secs   av.it.:   2.2
      thresh= 2.107E-08 alpha_mix =  0.300 |ddv_scf|^2 =  1.910E-14

      iter #  12 total cpu time :    46.5 secs   av.it.:   2.2
      thresh= 1.382E-08 alpha_mix =  0.300 |ddv_scf|^2 =  4.991E-15

      iter #  13 total cpu time :    46.8 secs   av.it.:   2.0
      thresh= 7.065E-09 alpha_mix =  0.300 |ddv_scf|^2 =  6.649E-16

     End of self-consistent calculation

     Convergence has been achieved 


     Representation #  3 mode #   3

     Self-consistent Calculation

      iter #   1 total cpu time :    47.1 secs   av.it.:   1.0
      thresh= 1.000E-02 alpha_mix =  0.300 |ddv_scf|^2 =  1.193E-06

      iter #   2 total cpu time :    47.4 secs   av.it.:   2.0
      thresh= 1.092E-04 alpha_mix =  0.300 |ddv_scf|^2 =  5.670E-07

      iter #   3 total cpu time :    47.7 secs   av.it.:   2.1
      thresh= 7.530E-05 alpha_mix =  0.300 |ddv_scf|^2 =  2.628E-09

      iter #   4 total cpu time :    48.1 secs   av.it.:   2.6
      thresh= 5.126E-06 alpha_mix =  0.300 |ddv_scf|^2 =  6.443E-11

      iter #   5 total cpu time :    48.4 secs   av.it.:   2.4
      thresh= 8.027E-07 alpha_mix =  0.300 |ddv_scf|^2 =  1.369E-11

      iter #   6 total cpu time :    48.7 secs   av.it.:   2.4
      thresh= 3.700E-07 alpha_mix =  0.300 |ddv_scf|^2 =  3.705E-14

      iter #   7 total cpu time :    49.1 secs   av.it.:   2.5
      thresh= 1.925E-08 alpha_mix =  0.300 |ddv_scf|^2 =  1.003E-14

      iter #   8 total cpu time :    49.4 secs   av.it.:   2.2
      thresh= 1.001E-08 alpha_mix =  0.300 |ddv_scf|^2 =  1.235E-17

     End of self-consistent calculation

     Convergence has been achieved 

     Number of q in the star =   24
     List of q in the star:
          1  -0.088388348  -0.088388348   0.265165043
          2   0.265165043  -0.088388348  -0.088388348
          3  -0.088388348   0.265165043  -0.088388348
          4  -0.088388348   0.088388348   0.265165043
          5   0.088388348  -0.088388348   0.265165043
          6   0.265165043   0.088388348  -0.088388348
          7  -0.265165043   0.088388348   0.088388348
          8   0.265165043  -0.088388348   0.088388348
          9  -0.265165043  -0.088388348  -0.088388348
         10   0.088388348   0.265165043  -0.088388348
         11   0.088388348  -0.265165043   0.088388348
         12  -0.088388348   0.265165043   0.088388348
         13  -0.088388348  -0.265165043  -0.088388348
         14   0.088388348   0.088388348   0.265165043
         15   0.088388348   0.265165043   0.088388348
         16  -0.088388348  -0.265165043   0.088388348
         17   0.088388348  -0.265165043  -0.088388348
         18   0.088388348  -0.088388348  -0.265165043
         19   0.265165043   0.088388348   0.088388348
         20  -0.265165043   0.088388348  -0.088388348
         21  -0.265165043  -0.088388348   0.088388348
         22   0.088388348   0.088388348  -0.265165043
         23  -0.088388348  -0.088388348  -0.265165043
         24  -0.088388348   0.088388348  -0.265165043

     Diagonalizing the dynamical matrix

     q = (   -0.088388348  -0.088388348   0.265165043 ) 

 **************************************************************************
     freq (    1) =       3.515685 [THz] =     117.270616 [cm-1]
     freq (    2) =       3.645057 [THz] =     121.586029 [cm-1]
     freq (    3) =       6.357401 [THz] =     212.060082 [cm-1]
 **************************************************************************

     Calculation of q =    0.4419417   0.0883883   0.0883883
     [opt_tetra]  Optimized tetrahedron method is used.

     G-vector sticks info
     --------------------
     sticks:   dense  smooth     PW     G-vecs:    dense   smooth      PW
     Sum         511     511    187                 7799     7799    1639


     Title: 
     Phonon                                                                     


     bravais-lattice index     =            0
     lattice parameter (alat)  =       5.3778  a.u.
     unit-cell volume          =     109.9740 (a.u.)^3
     number of atoms/cell      =            1
     number of atomic types    =            1
     number of electrons       =         3.00
     number of Kohn-Sham states=            6
     kinetic-energy cutoff     =      65.0000  Ry
     charge density cutoff     =     260.0000  Ry
     Exchange-correlation= PBE
                           (   1   4   3   4   0   0   0)

     celldm(1)=   5.377763  celldm(2)=   0.000000  celldm(3)=   0.000000
     celldm(4)=   0.000000  celldm(5)=   0.000000  celldm(6)=   0.000000

     crystal axes: (cart. coord. in units of alat)
               a(1) = (   0.000000   0.707107   0.707107 )  
               a(2) = (   0.707107   0.000000   0.707107 )  
               a(3) = (   0.707107   0.707107   0.000000 )  

     reciprocal axes: (cart. coord. in units 2 pi/alat)
               b(1) = ( -0.707107  0.707107  0.707107 )  
               b(2) = (  0.707107 -0.707107  0.707107 )  
               b(3) = (  0.707107  0.707107 -0.707107 )  


     PseudoPot. # 1 for Al read from file:
     ./Al.pbe-n-nc.UPF
     MD5 check sum: 670bd543589c27b6508fb047b2733a83
     Pseudo is Norm-conserving + core correction, Zval =  3.0
     Generated using "atomic" code by A. Dal Corso v.5.0.99 svn rev. 10869
     Using radial grid of 1135 points,  2 beta functions with: 
                l(1) =   0
                l(2) =   1

     atomic species   valence    mass     pseudopotential
        Al             3.00    26.98154     Al( 1.00)

     48 Sym. Ops., with inversion, found



   Cartesian axes

     site n.     atom                  positions (alat units)
         1           Al  tau(   1) = (   0.0000000   0.0000000   0.0000000  )

     number of k points=   576 (tetrahedron method)

     Number of k-points >= 100: set verbosity='high' to print them.

     Dense  grid:     7799 G-vectors     FFT dimensions: (  27,  27,  27)

     Estimated max dynamical RAM per process >       3.41 MB

     Estimated total dynamical RAM >      98.84 MB

     Check: negative core charge=   -0.000002

     The potential is recalculated from file :
     ./_ph0/pwscf.q_5/pwscf.save/charge-density

     Starting wfcs are    4 atomic +    2 random wfcs

     Band Structure Calculation
     Davidson diagonalization with overlap

     ethr =  3.33E-10,  avg # of iterations = 15.1

     total cpu time spent up to now is       11.8 secs

     End of band structure calculation

     Number of k-points >= 100: set verbosity='high' to print the bands.

     the Fermi energy is     7.9694 ev

     Writing output data file ./_ph0/pwscf.q_5/pwscf.save/
 
     [dfpt_tetra]  Dos(E_F)[/Ry] :   0.4119245E+01

     Phonon                                                                     

     bravais-lattice index     =            0
     lattice parameter (alat)  =       5.3778  a.u.
     unit-cell volume          =     109.9740 (a.u.)^3
     number of atoms/cell      =            1
     number of atomic types    =            1
     kinetic-energy cut-off    =      65.0000  Ry
     charge density cut-off    =     260.0000  Ry
     convergence threshold     =      1.0E-15
     beta                      =       0.3000
     number of iterations used =            4
     Exchange-correlation= PBE
                           (   1   4   3   4   0   0   0)


     celldm(1)=    5.37776  celldm(2)=    0.00000  celldm(3)=    0.00000
     celldm(4)=    0.00000  celldm(5)=    0.00000  celldm(6)=    0.00000

     crystal axes: (cart. coord. in units of alat)
               a(1) = (  0.0000  0.7071  0.7071 )  
               a(2) = (  0.7071  0.0000  0.7071 )  
               a(3) = (  0.7071  0.7071  0.0000 )  

     reciprocal axes: (cart. coord. in units 2 pi/alat)
               b(1) = ( -0.7071  0.7071  0.7071 )  
               b(2) = (  0.7071 -0.7071  0.7071 )  
               b(3) = (  0.7071  0.7071 -0.7071 )  


     Atoms inside the unit cell: 

     Cartesian axes

     site n.  atom      mass           positions (alat units)
        1     Al  26.9815   tau(    1) = (    0.00000    0.00000    0.00000  )

     Computing dynamical matrix for 
                    q = (   0.4419417   0.0883883   0.0883883 )

      2 Sym.Ops. (no q -> -q+G )


     G cutoff =  190.4658  (   7799 G-vectors)     FFT grid: ( 27, 27, 27)
     number of k points=   576

     PseudoPot. # 1 for Al read from file:
     ./Al.pbe-n-nc.UPF
     MD5 check sum: 670bd543589c27b6508fb047b2733a83
     Pseudo is Norm-conserving + core correction, Zval =  3.0
     Generated using "atomic" code by A. Dal Corso v.5.0.99 svn rev. 10869
     Using radial grid of 1135 points,  2 beta functions with: 
                l(1) =   0
                l(2) =   1


     Atomic displacements:
     There are   3 irreducible representations

     Representation     1      1 modes -  To be done

     Representation     2      1 modes -  To be done

     Representation     3      1 modes -  To be done



     Alpha used in Ewald sum =   2.8000
     PHONON       :     45.60s CPU     52.89s WALL



     Representation #  1 mode #   1

     Self-consistent Calculation

      iter #   1 total cpu time :    53.2 secs   av.it.:   1.5
      thresh= 1.000E-02 alpha_mix =  0.300 |ddv_scf|^2 =  1.711E-04

      iter #   2 total cpu time :    53.5 secs   av.it.:   1.9
      thresh= 1.308E-03 alpha_mix =  0.300 |ddv_scf|^2 =  2.961E-05

      iter #   3 total cpu time :    54.1 secs   av.it.:   1.9
      thresh= 5.442E-04 alpha_mix =  0.300 |ddv_scf|^2 =  3.398E-07

      iter #   4 total cpu time :    54.4 secs   av.it.:   2.3
      thresh= 5.829E-05 alpha_mix =  0.300 |ddv_scf|^2 =  3.804E-09

      iter #   5 total cpu time :    54.8 secs   av.it.:   2.4
      thresh= 6.168E-06 alpha_mix =  0.300 |ddv_scf|^2 =  6.072E-10

      iter #   6 total cpu time :    55.1 secs   av.it.:   2.3
      thresh= 2.464E-06 alpha_mix =  0.300 |ddv_scf|^2 =  2.097E-11

      iter #   7 total cpu time :    55.4 secs   av.it.:   2.5
      thresh= 4.580E-07 alpha_mix =  0.300 |ddv_scf|^2 =  4.591E-13

      iter #   8 total cpu time :    55.8 secs   av.it.:   2.6
      thresh= 6.775E-08 alpha_mix =  0.300 |ddv_scf|^2 =  8.679E-14

      iter #   9 total cpu time :    56.1 secs   av.it.:   2.2
      thresh= 2.946E-08 alpha_mix =  0.300 |ddv_scf|^2 =  2.491E-14

      iter #  10 total cpu time :    56.5 secs   av.it.:   2.5
      thresh= 1.578E-08 alpha_mix =  0.300 |ddv_scf|^2 =  3.472E-16

     End of self-consistent calculation

     Convergence has been achieved 


     Representation #  2 mode #   2

     Self-consistent Calculation

      iter #   1 total cpu time :    56.8 secs   av.it.:   1.0
      thresh= 1.000E-02 alpha_mix =  0.300 |ddv_scf|^2 =  1.102E-06

      iter #   2 total cpu time :    57.1 secs   av.it.:   2.0
      thresh= 1.050E-04 alpha_mix =  0.300 |ddv_scf|^2 =  5.341E-07

      iter #   3 total cpu time :    57.4 secs   av.it.:   2.1
      thresh= 7.308E-05 alpha_mix =  0.300 |ddv_scf|^2 =  1.201E-09

      iter #   4 total cpu time :    57.7 secs   av.it.:   2.6
      thresh= 3.466E-06 alpha_mix =  0.300 |ddv_scf|^2 =  8.533E-11

      iter #   5 total cpu time :    58.1 secs   av.it.:   2.3
      thresh= 9.237E-07 alpha_mix =  0.300 |ddv_scf|^2 =  1.196E-11

      iter #   6 total cpu time :    58.4 secs   av.it.:   2.4
      thresh= 3.458E-07 alpha_mix =  0.300 |ddv_scf|^2 =  2.647E-14

      iter #   7 total cpu time :    58.7 secs   av.it.:   2.5
      thresh= 1.627E-08 alpha_mix =  0.300 |ddv_scf|^2 =  9.195E-15

      iter #   8 total cpu time :    59.1 secs   av.it.:   2.2
      thresh= 9.589E-09 alpha_mix =  0.300 |ddv_scf|^2 =  6.556E-18

     End of self-consistent calculation

     Convergence has been achieved 


     Representation #  3 mode #   3

     Self-consistent Calculation

      iter #   1 total cpu time :    59.4 secs   av.it.:   1.0
      thresh= 1.000E-02 alpha_mix =  0.300 |ddv_scf|^2 =  1.281E-05

      iter #   2 total cpu time :    59.7 secs   av.it.:   2.0
      thresh= 3.580E-04 alpha_mix =  0.300 |ddv_scf|^2 =  2.555E-06

      iter #   3 total cpu time :    60.1 secs   av.it.:   2.0
      thresh= 1.598E-04 alpha_mix =  0.300 |ddv_scf|^2 =  3.375E-07

      iter #   4 total cpu time :    60.4 secs   av.it.:   2.2
      thresh= 5.810E-05 alpha_mix =  0.300 |ddv_scf|^2 =  2.138E-09

      iter #   5 total cpu time :    61.0 secs   av.it.:   2.5
      thresh= 4.623E-06 alpha_mix =  0.300 |ddv_scf|^2 =  3.431E-10

      iter #   6 total cpu time :    61.3 secs   av.it.:   2.3
      thresh= 1.852E-06 alpha_mix =  0.300 |ddv_scf|^2 =  2.721E-11

      iter #   7 total cpu time :    61.7 secs   av.it.:   2.6
      thresh= 5.217E-07 alpha_mix =  0.300 |ddv_scf|^2 =  4.078E-13

      iter #   8 total cpu time :    62.0 secs   av.it.:   2.5
      thresh= 6.386E-08 alpha_mix =  0.300 |ddv_scf|^2 =  1.619E-13

      iter #   9 total cpu time :    62.3 secs   av.it.:   2.2
      thresh= 4.023E-08 alpha_mix =  0.300 |ddv_scf|^2 =  3.247E-14

      iter #  10 total cpu time :    62.7 secs   av.it.:   2.5
      thresh= 1.802E-08 alpha_mix =  0.300 |ddv_scf|^2 =  1.322E-15

      iter #  11 total cpu time :    63.0 secs   av.it.:   2.2
      thresh= 3.636E-09 alpha_mix =  0.300 |ddv_scf|^2 =  5.629E-16

     End of self-consistent calculation

     Convergence has been achieved 

     Number of q in the star =   24
     List of q in the star:
          1   0.441941738   0.088388348   0.088388348
          2   0.088388348   0.441941738   0.088388348
          3   0.088388348   0.088388348   0.441941738
          4   0.088388348  -0.441941738   0.088388348
          5  -0.088388348   0.441941738   0.088388348
          6   0.088388348  -0.088388348   0.441941738
          7  -0.088388348  -0.088388348  -0.441941738
          8   0.088388348   0.088388348  -0.441941738
          9  -0.088388348   0.088388348   0.441941738
         10  -0.441941738   0.088388348   0.088388348
         11  -0.441941738  -0.088388348  -0.088388348
         12   0.441941738   0.088388348  -0.088388348
         13   0.441941738  -0.088388348   0.088388348
         14  -0.441941738  -0.088388348   0.088388348
         15  -0.088388348   0.088388348  -0.441941738
         16   0.088388348  -0.088388348  -0.441941738
         17  -0.088388348  -0.088388348   0.441941738
         18  -0.441941738   0.088388348  -0.088388348
         19   0.088388348  -0.441941738  -0.088388348
         20  -0.088388348  -0.441941738   0.088388348
         21  -0.088388348   0.441941738  -0.088388348
         22   0.441941738  -0.088388348  -0.088388348
         23   0.088388348   0.441941738  -0.088388348
         24  -0.088388348  -0.441941738  -0.088388348

     Diagonalizing the dynamical matrix

     q = (    0.441941738   0.088388348   0.088388348 ) 

 **************************************************************************
     freq (    1) =       4.859441 [THz] =     162.093515 [cm-1]
     freq (    2) =       5.443720 [THz] =     181.582945 [cm-1]
     freq (    3) =       8.327854 [THz] =     277.787321 [cm-1]
 **************************************************************************

     Calculation of q =   -0.0883883  -0.4419417   0.6187184
     [opt_tetra]  Optimized tetrahedron method is used.

     G-vector sticks info
     --------------------
     sticks:   dense  smooth     PW     G-vecs:    dense   smooth      PW
     Sum         511     511    199                 7799     7799    1837


     Title: 
     Phonon                                                                     


     bravais-lattice index     =            0
     lattice parameter (alat)  =       5.3778  a.u.
     unit-cell volume          =     109.9740 (a.u.)^3
     number of atoms/cell      =            1
     number of atomic types    =            1
     number of electrons       =         3.00
     number of Kohn-Sham states=            6
     kinetic-energy cutoff     =      65.0000  Ry
     charge density cutoff     =     260.0000  Ry
     Exchange-correlation= PBE
                           (   1   4   3   4   0   0   0)

     celldm(1)=   5.377763  celldm(2)=   0.000000  celldm(3)=   0.000000
     celldm(4)=   0.000000  celldm(5)=   0.000000  celldm(6)=   0.000000

     crystal axes: (cart. coord. in units of alat)
               a(1) = (   0.000000   0.707107   0.707107 )  
               a(2) = (   0.707107   0.000000   0.707107 )  
               a(3) = (   0.707107   0.707107   0.000000 )  

     reciprocal axes: (cart. coord. in units 2 pi/alat)
               b(1) = ( -0.707107  0.707107  0.707107 )  
               b(2) = (  0.707107 -0.707107  0.707107 )  
               b(3) = (  0.707107  0.707107 -0.707107 )  


     PseudoPot. # 1 for Al read from file:
     ./Al.pbe-n-nc.UPF
     MD5 check sum: 670bd543589c27b6508fb047b2733a83
     Pseudo is Norm-conserving + core correction, Zval =  3.0
     Generated using "atomic" code by A. Dal Corso v.5.0.99 svn rev. 10869
     Using radial grid of 1135 points,  2 beta functions with: 
                l(1) =   0
                l(2) =   1

     atomic species   valence    mass     pseudopotential
        Al             3.00    26.98154     Al( 1.00)

     48 Sym. Ops., with inversion, found



   Cartesian axes

     site n.     atom                  positions (alat units)
         1           Al  tau(   1) = (   0.0000000   0.0000000   0.0000000  )

     number of k points=  1024 (tetrahedron method)

     Number of k-points >= 100: set verbosity='high' to print them.

     Dense  grid:     7799 G-vectors     FFT dimensions: (  27,  27,  27)

     Estimated max dynamical RAM per process >       3.41 MB

     Estimated total dynamical RAM >      98.90 MB

     Check: negative core charge=   -0.000002

     The potential is recalculated from file :
     ./_ph0/pwscf.q_6/pwscf.save/charge-density

     Starting wfcs are    4 atomic +    2 random wfcs

     Band Structure Calculation
     Davidson diagonalization with overlap

     ethr =  3.33E-10,  avg # of iterations = 14.9

     total cpu time spent up to now is       16.1 secs

     End of band structure calculation

     Number of k-points >= 100: set verbosity='high' to print the bands.

     the Fermi energy is     7.9694 ev

     Writing output data file ./_ph0/pwscf.q_6/pwscf.save/
 
     [dfpt_tetra]  Dos(E_F)[/Ry] :   0.4119245E+01

     Phonon                                                                     

     bravais-lattice index     =            0
     lattice parameter (alat)  =       5.3778  a.u.
     unit-cell volume          =     109.9740 (a.u.)^3
     number of atoms/cell      =            1
     number of atomic types    =            1
     kinetic-energy cut-off    =      65.0000  Ry
     charge density cut-off    =     260.0000  Ry
     convergence threshold     =      1.0E-15
     beta                      =       0.3000
     number of iterations used =            4
     Exchange-correlation= PBE
                           (   1   4   3   4   0   0   0)


     celldm(1)=    5.37776  celldm(2)=    0.00000  celldm(3)=    0.00000
     celldm(4)=    0.00000  celldm(5)=    0.00000  celldm(6)=    0.00000

     crystal axes: (cart. coord. in units of alat)
               a(1) = (  0.0000  0.7071  0.7071 )  
               a(2) = (  0.7071  0.0000  0.7071 )  
               a(3) = (  0.7071  0.7071  0.0000 )  

     reciprocal axes: (cart. coord. in units 2 pi/alat)
               b(1) = ( -0.7071  0.7071  0.7071 )  
               b(2) = (  0.7071 -0.7071  0.7071 )  
               b(3) = (  0.7071  0.7071 -0.7071 )  


     Atoms inside the unit cell: 

     Cartesian axes

     site n.  atom      mass           positions (alat units)
        1     Al  26.9815   tau(    1) = (    0.00000    0.00000    0.00000  )

     Computing dynamical matrix for 
                    q = (  -0.0883883  -0.4419417   0.6187184 )

     No symmetry!

     G cutoff =  190.4658  (   7799 G-vectors)     FFT grid: ( 27, 27, 27)
     number of k points=  1024

     PseudoPot. # 1 for Al read from file:
     ./Al.pbe-n-nc.UPF
     MD5 check sum: 670bd543589c27b6508fb047b2733a83
     Pseudo is Norm-conserving + core correction, Zval =  3.0
     Generated using "atomic" code by A. Dal Corso v.5.0.99 svn rev. 10869
     Using radial grid of 1135 points,  2 beta functions with: 
                l(1) =   0
                l(2) =   1


     Atomic displacements:
     There are   3 irreducible representations

     Representation     1      1 modes -  To be done

     Representation     2      1 modes -  To be done

     Representation     3      1 modes -  To be done



     Alpha used in Ewald sum =   2.8000
     PHONON       :     59.00s CPU   1m 8.36s WALL



     Representation #  1 mode #   1

     Self-consistent Calculation

      iter #   1 total cpu time :    68.8 secs   av.it.:   1.2
      thresh= 1.000E-02 alpha_mix =  0.300 |ddv_scf|^2 =  6.992E-06

      iter #   2 total cpu time :    69.4 secs   av.it.:   2.1
      thresh= 2.644E-04 alpha_mix =  0.300 |ddv_scf|^2 =  1.025E-06

      iter #   3 total cpu time :    70.0 secs   av.it.:   2.1
      thresh= 1.012E-04 alpha_mix =  0.300 |ddv_scf|^2 =  1.854E-07

      iter #   4 total cpu time :    70.7 secs   av.it.:   2.1
      thresh= 4.306E-05 alpha_mix =  0.300 |ddv_scf|^2 =  7.507E-09

      iter #   5 total cpu time :    71.2 secs   av.it.:   2.4
      thresh= 8.664E-06 alpha_mix =  0.300 |ddv_scf|^2 =  9.293E-11

      iter #   6 total cpu time :    71.8 secs   av.it.:   2.5
      thresh= 9.640E-07 alpha_mix =  0.300 |ddv_scf|^2 =  2.598E-11

      iter #   7 total cpu time :    72.4 secs   av.it.:   2.3
      thresh= 5.097E-07 alpha_mix =  0.300 |ddv_scf|^2 =  1.022E-12

      iter #   8 total cpu time :    73.0 secs   av.it.:   2.5
      thresh= 1.011E-07 alpha_mix =  0.300 |ddv_scf|^2 =  2.443E-13

      iter #   9 total cpu time :    73.6 secs   av.it.:   2.3
      thresh= 4.943E-08 alpha_mix =  0.300 |ddv_scf|^2 =  8.842E-15

      iter #  10 total cpu time :    74.2 secs   av.it.:   2.6
      thresh= 9.403E-09 alpha_mix =  0.300 |ddv_scf|^2 =  1.017E-15

      iter #  11 total cpu time :    74.8 secs   av.it.:   2.3
      thresh= 3.190E-09 alpha_mix =  0.300 |ddv_scf|^2 =  3.646E-16

     End of self-consistent calculation

     Convergence has been achieved 


     Representation #  2 mode #   2

     Self-consistent Calculation

      iter #   1 total cpu time :    75.3 secs   av.it.:   1.0
      thresh= 1.000E-02 alpha_mix =  0.300 |ddv_scf|^2 =  2.731E-06

      iter #   2 total cpu time :    75.8 secs   av.it.:   2.2
      thresh= 1.652E-04 alpha_mix =  0.300 |ddv_scf|^2 =  6.806E-07

      iter #   3 total cpu time :    76.4 secs   av.it.:   2.1
      thresh= 8.250E-05 alpha_mix =  0.300 |ddv_scf|^2 =  1.523E-07

      iter #   4 total cpu time :    77.0 secs   av.it.:   2.1
      thresh= 3.902E-05 alpha_mix =  0.300 |ddv_scf|^2 =  3.231E-09

      iter #   5 total cpu time :    77.6 secs   av.it.:   2.6
      thresh= 5.684E-06 alpha_mix =  0.300 |ddv_scf|^2 =  1.054E-10

      iter #   6 total cpu time :    78.2 secs   av.it.:   2.5
      thresh= 1.027E-06 alpha_mix =  0.300 |ddv_scf|^2 =  1.791E-11

      iter #   7 total cpu time :    78.7 secs   av.it.:   2.3
      thresh= 4.232E-07 alpha_mix =  0.300 |ddv_scf|^2 =  2.004E-12

      iter #   8 total cpu time :    79.3 secs   av.it.:   2.3
      thresh= 1.416E-07 alpha_mix =  0.300 |ddv_scf|^2 =  4.858E-13

      iter #   9 total cpu time :    79.9 secs   av.it.:   2.4
      thresh= 6.970E-08 alpha_mix =  0.300 |ddv_scf|^2 =  1.475E-14

      iter #  10 total cpu time :    80.6 secs   av.it.:   2.6
      thresh= 1.215E-08 alpha_mix =  0.300 |ddv_scf|^2 =  1.840E-15

      iter #  11 total cpu time :    81.2 secs   av.it.:   2.3
      thresh= 4.290E-09 alpha_mix =  0.300 |ddv_scf|^2 =  4.795E-16

     End of self-consistent calculation

     Convergence has been achieved 


     Representation #  3 mode #   3

     Self-consistent Calculation

      iter #   1 total cpu time :    81.7 secs   av.it.:   1.0
      thresh= 1.000E-02 alpha_mix =  0.300 |ddv_scf|^2 =  1.823E-06

      iter #   2 total cpu time :    82.3 secs   av.it.:   2.2
      thresh= 1.350E-04 alpha_mix =  0.300 |ddv_scf|^2 =  6.394E-07

      iter #   3 total cpu time :    82.8 secs   av.it.:   2.1
      thresh= 7.996E-05 alpha_mix =  0.300 |ddv_scf|^2 =  9.888E-08

      iter #   4 total cpu time :    83.4 secs   av.it.:   2.2
      thresh= 3.144E-05 alpha_mix =  0.300 |ddv_scf|^2 =  2.968E-09

      iter #   5 total cpu time :    84.0 secs   av.it.:   2.5
      thresh= 5.448E-06 alpha_mix =  0.300 |ddv_scf|^2 =  1.071E-10

      iter #   6 total cpu time :    84.6 secs   av.it.:   2.5
      thresh= 1.035E-06 alpha_mix =  0.300 |ddv_scf|^2 =  1.754E-11

      iter #   7 total cpu time :    85.3 secs   av.it.:   2.4
      thresh= 4.188E-07 alpha_mix =  0.300 |ddv_scf|^2 =  1.514E-12

      iter #   8 total cpu time :    85.9 secs   av.it.:   2.4
      thresh= 1.230E-07 alpha_mix =  0.300 |ddv_scf|^2 =  2.932E-13

      iter #   9 total cpu time :    86.5 secs   av.it.:   2.4
      thresh= 5.415E-08 alpha_mix =  0.300 |ddv_scf|^2 =  2.008E-14

      iter #  10 total cpu time :    87.1 secs   av.it.:   2.5
      thresh= 1.417E-08 alpha_mix =  0.300 |ddv_scf|^2 =  1.212E-15

      iter #  11 total cpu time :    87.6 secs   av.it.:   2.4
      thresh= 3.481E-09 alpha_mix =  0.300 |ddv_scf|^2 =  4.212E-16

     End of self-consistent calculation

     Convergence has been achieved 

     Number of q in the star =   48
     List of q in the star:
          1  -0.088388348  -0.441941738   0.618718434
          2  -0.088388348   0.618718434  -0.441941738
          3   0.618718434  -0.088388348  -0.441941738
          4  -0.441941738   0.618718434  -0.088388348
          5   0.618718434  -0.441941738  -0.088388348
          6  -0.441941738  -0.088388348   0.618718434
          7  -0.441941738   0.088388348   0.618718434
          8   0.441941738  -0.088388348   0.618718434
          9   0.618718434   0.441941738  -0.088388348
         10  -0.618718434   0.441941738   0.088388348
         11   0.618718434  -0.441941738   0.088388348
         12  -0.618718434  -0.441941738  -0.088388348
         13   0.088388348   0.618718434  -0.441941738
         14   0.088388348  -0.618718434   0.441941738
         15  -0.088388348   0.618718434   0.441941738
         16  -0.088388348  -0.618718434  -0.441941738
         17   0.088388348   0.441941738   0.618718434
         18   0.441941738   0.618718434   0.088388348
         19  -0.441941738  -0.618718434   0.088388348
         20   0.441941738  -0.618718434  -0.088388348
         21   0.088388348  -0.441941738  -0.618718434
         22   0.618718434   0.088388348   0.441941738
         23  -0.618718434   0.088388348  -0.441941738
         24  -0.618718434  -0.088388348   0.441941738
         25   0.088388348   0.441941738  -0.618718434
         26  -0.088388348  -0.441941738  -0.618718434
         27  -0.088388348   0.441941738   0.618718434
         28   0.088388348  -0.441941738   0.618718434
         29   0.441941738   0.088388348   0.618718434
         30  -0.088388348   0.441941738  -0.618718434
         31   0.441941738  -0.088388348  -0.618718434
         32  -0.441941738   0.088388348  -0.618718434
         33  -0.618718434  -0.441941738   0.088388348
         34  -0.441941738  -0.088388348  -0.618718434
         35  -0.618718434   0.441941738  -0.088388348
         36   0.618718434   0.441941738   0.088388348
         37  -0.088388348  -0.618718434   0.441941738
         38   0.441941738   0.088388348  -0.618718434
         39   0.088388348  -0.618718434  -0.441941738
         40   0.088388348   0.618718434   0.441941738
         41   0.441941738  -0.618718434   0.088388348
         42  -0.441941738  -0.618718434  -0.088388348
         43   0.441941738   0.618718434  -0.088388348
         44  -0.441941738   0.618718434   0.088388348
         45  -0.618718434   0.088388348   0.441941738
         46  -0.618718434  -0.088388348  -0.441941738
         47   0.618718434  -0.088388348   0.441941738
         48   0.618718434   0.088388348  -0.441941738

     Diagonalizing the dynamical matrix

     q = (   -0.088388348  -0.441941738   0.618718434 ) 

 **************************************************************************
     freq (    1) =       5.874960 [THz] =     195.967582 [cm-1]
     freq (    2) =       7.515333 [THz] =     250.684512 [cm-1]
     freq (    3) =       8.839490 [THz] =     294.853634 [cm-1]
 **************************************************************************

     Calculation of q =    0.0883883  -0.2651650   0.4419417
     [opt_tetra]  Optimized tetrahedron method is used.

     G-vector sticks info
     --------------------
     sticks:   dense  smooth     PW     G-vecs:    dense   smooth      PW
     Sum         511     511    187                 7799     7799    1687


     Title: 
     Phonon                                                                     


     bravais-lattice index     =            0
     lattice parameter (alat)  =       5.3778  a.u.
     unit-cell volume          =     109.9740 (a.u.)^3
     number of atoms/cell      =            1
     number of atomic types    =            1
     number of electrons       =         3.00
     number of Kohn-Sham states=            6
     kinetic-energy cutoff     =      65.0000  Ry
     charge density cutoff     =     260.0000  Ry
     Exchange-correlation= PBE
                           (   1   4   3   4   0   0   0)

     celldm(1)=   5.377763  celldm(2)=   0.000000  celldm(3)=   0.000000
     celldm(4)=   0.000000  celldm(5)=   0.000000  celldm(6)=   0.000000

     crystal axes: (cart. coord. in units of alat)
               a(1) = (   0.000000   0.707107   0.707107 )  
               a(2) = (   0.707107   0.000000   0.707107 )  
               a(3) = (   0.707107   0.707107   0.000000 )  

     reciprocal axes: (cart. coord. in units 2 pi/alat)
               b(1) = ( -0.707107  0.707107  0.707107 )  
               b(2) = (  0.707107 -0.707107  0.707107 )  
               b(3) = (  0.707107  0.707107 -0.707107 )  


     PseudoPot. # 1 for Al read from file:
     ./Al.pbe-n-nc.UPF
     MD5 check sum: 670bd543589c27b6508fb047b2733a83
     Pseudo is Norm-conserving + core correction, Zval =  3.0
     Generated using "atomic" code by A. Dal Corso v.5.0.99 svn rev. 10869
     Using radial grid of 1135 points,  2 beta functions with: 
                l(1) =   0
                l(2) =   1

     atomic species   valence    mass     pseudopotential
        Al             3.00    26.98154     Al( 1.00)

     48 Sym. Ops., with inversion, found



   Cartesian axes

     site n.     atom                  positions (alat units)
         1           Al  tau(   1) = (   0.0000000   0.0000000   0.0000000  )

     number of k points=  1024 (tetrahedron method)

     Number of k-points >= 100: set verbosity='high' to print them.

     Dense  grid:     7799 G-vectors     FFT dimensions: (  27,  27,  27)

     Estimated max dynamical RAM per process >       3.41 MB

     Estimated total dynamical RAM >      98.85 MB

     Check: negative core charge=   -0.000002

     The potential is recalculated from file :
     ./_ph0/pwscf.q_7/pwscf.save/charge-density

     Starting wfcs are    4 atomic +    2 random wfcs

     Band Structure Calculation
     Davidson diagonalization with overlap

     ethr =  3.33E-10,  avg # of iterations = 14.9

     total cpu time spent up to now is       20.5 secs

     End of band structure calculation

     Number of k-points >= 100: set verbosity='high' to print the bands.

     the Fermi energy is     7.9694 ev

     Writing output data file ./_ph0/pwscf.q_7/pwscf.save/
 
     [dfpt_tetra]  Dos(E_F)[/Ry] :   0.4119245E+01

     Phonon                                                                     

     bravais-lattice index     =            0
     lattice parameter (alat)  =       5.3778  a.u.
     unit-cell volume          =     109.9740 (a.u.)^3
     number of atoms/cell      =            1
     number of atomic types    =            1
     kinetic-energy cut-off    =      65.0000  Ry
     charge density cut-off    =     260.0000  Ry
     convergence threshold     =      1.0E-15
     beta                      =       0.3000
     number of iterations used =            4
     Exchange-correlation= PBE
                           (   1   4   3   4   0   0   0)


     celldm(1)=    5.37776  celldm(2)=    0.00000  celldm(3)=    0.00000
     celldm(4)=    0.00000  celldm(5)=    0.00000  celldm(6)=    0.00000

     crystal axes: (cart. coord. in units of alat)
               a(1) = (  0.0000  0.7071  0.7071 )  
               a(2) = (  0.7071  0.0000  0.7071 )  
               a(3) = (  0.7071  0.7071  0.0000 )  

     reciprocal axes: (cart. coord. in units 2 pi/alat)
               b(1) = ( -0.7071  0.7071  0.7071 )  
               b(2) = (  0.7071 -0.7071  0.7071 )  
               b(3) = (  0.7071  0.7071 -0.7071 )  


     Atoms inside the unit cell: 

     Cartesian axes

     site n.  atom      mass           positions (alat units)
        1     Al  26.9815   tau(    1) = (    0.00000    0.00000    0.00000  )

     Computing dynamical matrix for 
                    q = (   0.0883883  -0.2651650   0.4419417 )

     No symmetry!

     G cutoff =  190.4658  (   7799 G-vectors)     FFT grid: ( 27, 27, 27)
     number of k points=  1024

     PseudoPot. # 1 for Al read from file:
     ./Al.pbe-n-nc.UPF
     MD5 check sum: 670bd543589c27b6508fb047b2733a83
     Pseudo is Norm-conserving + core correction, Zval =  3.0
     Generated using "atomic" code by A. Dal Corso v.5.0.99 svn rev. 10869
     Using radial grid of 1135 points,  2 beta functions with: 
                l(1) =   0
                l(2) =   1


     Atomic displacements:
     There are   3 irreducible representations

     Representation     1      1 modes -  To be done

     Representation     2      1 modes -  To be done

     Representation     3      1 modes -  To be done



     Alpha used in Ewald sum =   2.8000
     PHONON       :   1m21.21s CPU   1m32.96s WALL



     Representation #  1 mode #   1

     Self-consistent Calculation

      iter #   1 total cpu time :    93.4 secs   av.it.:   1.2
      thresh= 1.000E-02 alpha_mix =  0.300 |ddv_scf|^2 =  2.394E-05

      iter #   2 total cpu time :    94.0 secs   av.it.:   2.0
      thresh= 4.893E-04 alpha_mix =  0.300 |ddv_scf|^2 =  9.493E-07

      iter #   3 total cpu time :    94.5 secs   av.it.:   2.1
      thresh= 9.743E-05 alpha_mix =  0.300 |ddv_scf|^2 =  2.922E-07

      iter #   4 total cpu time :    95.2 secs   av.it.:   2.1
      thresh= 5.406E-05 alpha_mix =  0.300 |ddv_scf|^2 =  1.159E-09

      iter #   5 total cpu time :    95.8 secs   av.it.:   2.7
      thresh= 3.405E-06 alpha_mix =  0.300 |ddv_scf|^2 =  1.369E-10

      iter #   6 total cpu time :    96.4 secs   av.it.:   2.3
      thresh= 1.170E-06 alpha_mix =  0.300 |ddv_scf|^2 =  2.019E-11

      iter #   7 total cpu time :    97.0 secs   av.it.:   2.5
      thresh= 4.493E-07 alpha_mix =  0.300 |ddv_scf|^2 =  8.179E-13

      iter #   8 total cpu time :    97.6 secs   av.it.:   2.5
      thresh= 9.044E-08 alpha_mix =  0.300 |ddv_scf|^2 =  2.136E-13

      iter #   9 total cpu time :    98.1 secs   av.it.:   2.4
      thresh= 4.621E-08 alpha_mix =  0.300 |ddv_scf|^2 =  7.764E-15

      iter #  10 total cpu time :    98.7 secs   av.it.:   2.6
      thresh= 8.811E-09 alpha_mix =  0.300 |ddv_scf|^2 =  9.959E-16

     End of self-consistent calculation

[...]

      iter #   3 total cpu time :   126.1 secs   av.it.:   1.8
      thresh= 6.229E-04 alpha_mix =  0.300 |ddv_scf|^2 =  4.219E-07

      iter #   4 total cpu time :   126.3 secs   av.it.:   2.2
      thresh= 6.496E-05 alpha_mix =  0.300 |ddv_scf|^2 =  6.632E-08

      iter #   5 total cpu time :   126.4 secs   av.it.:   2.0
      thresh= 2.575E-05 alpha_mix =  0.300 |ddv_scf|^2 =  8.879E-10

      iter #   6 total cpu time :   126.6 secs   av.it.:   2.5
      thresh= 2.980E-06 alpha_mix =  0.300 |ddv_scf|^2 =  5.038E-11

      iter #   7 total cpu time :   126.8 secs   av.it.:   2.4
      thresh= 7.098E-07 alpha_mix =  0.300 |ddv_scf|^2 =  5.970E-13

      iter #   8 total cpu time :   127.0 secs   av.it.:   2.5
      thresh= 7.727E-08 alpha_mix =  0.300 |ddv_scf|^2 =  1.678E-13

      iter #   9 total cpu time :   127.1 secs   av.it.:   2.1
      thresh= 4.097E-08 alpha_mix =  0.300 |ddv_scf|^2 =  6.128E-14

      iter #  10 total cpu time :   127.3 secs   av.it.:   2.4
      thresh= 2.475E-08 alpha_mix =  0.300 |ddv_scf|^2 =  5.005E-15

      iter #  11 total cpu time :   127.5 secs   av.it.:   2.5
      thresh= 7.075E-09 alpha_mix =  0.300 |ddv_scf|^2 =  3.004E-16

     End of self-consistent calculation

     Convergence has been achieved 


     Representation #  2 modes #   2  3

     Self-consistent Calculation

      iter #   1 total cpu time :   127.8 secs   av.it.:   1.0
      thresh= 1.000E-02 alpha_mix =  0.300 |ddv_scf|^2 =  2.980E-07

      iter #   2 total cpu time :   128.1 secs   av.it.:   2.3
      thresh= 5.459E-05 alpha_mix =  0.300 |ddv_scf|^2 =  1.409E-07

      iter #   3 total cpu time :   128.4 secs   av.it.:   2.4
      thresh= 3.753E-05 alpha_mix =  0.300 |ddv_scf|^2 =  7.934E-10

      iter #   4 total cpu time :   128.8 secs   av.it.:   2.7
      thresh= 2.817E-06 alpha_mix =  0.300 |ddv_scf|^2 =  7.454E-12

      iter #   5 total cpu time :   129.2 secs   av.it.:   2.5
      thresh= 2.730E-07 alpha_mix =  0.300 |ddv_scf|^2 =  1.717E-12

      iter #   6 total cpu time :   129.5 secs   av.it.:   2.5
      thresh= 1.311E-07 alpha_mix =  0.300 |ddv_scf|^2 =  7.742E-15

      iter #   7 total cpu time :   129.9 secs   av.it.:   2.8
      thresh= 8.799E-09 alpha_mix =  0.300 |ddv_scf|^2 =  1.331E-15

      iter #   8 total cpu time :   130.4 secs   av.it.:   2.6
      thresh= 3.649E-09 alpha_mix =  0.300 |ddv_scf|^2 =  1.390E-17

     End of self-consistent calculation

     Convergence has been achieved 

     Number of q in the star =    8
     List of q in the star:
          1   0.265165043   0.265165043   0.265165043
          2   0.265165043  -0.265165043   0.265165043
          3  -0.265165043   0.265165043   0.265165043
          4  -0.265165043  -0.265165043  -0.265165043
          5   0.265165043   0.265165043  -0.265165043
          6  -0.265165043  -0.265165043   0.265165043
          7  -0.265165043   0.265165043  -0.265165043
          8   0.265165043  -0.265165043  -0.265165043

     Diagonalizing the dynamical matrix

     q = (    0.265165043   0.265165043   0.265165043 ) 

 **************************************************************************
     freq (    1) =       4.220930 [THz] =     140.795071 [cm-1]
     freq (    2) =       4.220930 [THz] =     140.795071 [cm-1]
     freq (    3) =       8.950136 [THz] =     298.544396 [cm-1]
 **************************************************************************

     Calculation of q =   -0.2651650  -0.2651650   0.7954951
     [opt_tetra]  Optimized tetrahedron method is used.

     G-vector sticks info
     --------------------
     sticks:   dense  smooth     PW     G-vecs:    dense   smooth      PW
     Sum         511     511    199                 7799     7799    1917


     Title: 
     Phonon                                                                     


     bravais-lattice index     =            0
     lattice parameter (alat)  =       5.3778  a.u.
     unit-cell volume          =     109.9740 (a.u.)^3
     number of atoms/cell      =            1
     number of atomic types    =            1
     number of electrons       =         3.00
     number of Kohn-Sham states=            6
     kinetic-energy cutoff     =      65.0000  Ry
     charge density cutoff     =     260.0000  Ry
     Exchange-correlation= PBE
                           (   1   4   3   4   0   0   0)

     celldm(1)=   5.377763  celldm(2)=   0.000000  celldm(3)=   0.000000
     celldm(4)=   0.000000  celldm(5)=   0.000000  celldm(6)=   0.000000

     crystal axes: (cart. coord. in units of alat)
               a(1) = (   0.000000   0.707107   0.707107 )  
               a(2) = (   0.707107   0.000000   0.707107 )  
               a(3) = (   0.707107   0.707107   0.000000 )  

     reciprocal axes: (cart. coord. in units 2 pi/alat)
               b(1) = ( -0.707107  0.707107  0.707107 )  
               b(2) = (  0.707107 -0.707107  0.707107 )  
               b(3) = (  0.707107  0.707107 -0.707107 )  


     PseudoPot. # 1 for Al read from file:
     ./Al.pbe-n-nc.UPF
     MD5 check sum: 670bd543589c27b6508fb047b2733a83
     Pseudo is Norm-conserving + core correction, Zval =  3.0
     Generated using "atomic" code by A. Dal Corso v.5.0.99 svn rev. 10869
     Using radial grid of 1135 points,  2 beta functions with: 
                l(1) =   0
                l(2) =   1

     atomic species   valence    mass     pseudopotential
        Al             3.00    26.98154     Al( 1.00)

     48 Sym. Ops., with inversion, found



   Cartesian axes

     site n.     atom                  positions (alat units)
         1           Al  tau(   1) = (   0.0000000   0.0000000   0.0000000  )

     number of k points=   576 (tetrahedron method)

     Number of k-points >= 100: set verbosity='high' to print them.

     Dense  grid:     7799 G-vectors     FFT dimensions: (  27,  27,  27)

     Estimated max dynamical RAM per process >       3.41 MB

     Estimated total dynamical RAM >      98.92 MB

     Check: negative core charge=   -0.000002

     The potential is recalculated from file :
     ./_ph0/pwscf.q_10/pwscf.save/charge-density

     Starting wfcs are    4 atomic +    2 random wfcs

     Band Structure Calculation
     Davidson diagonalization with overlap

     ethr =  3.33E-10,  avg # of iterations = 15.1

     total cpu time spent up to now is       27.2 secs

     End of band structure calculation

     Number of k-points >= 100: set verbosity='high' to print the bands.

     the Fermi energy is     7.9694 ev

     Writing output data file ./_ph0/pwscf.q_10/pwscf.save/
 
     [dfpt_tetra]  Dos(E_F)[/Ry] :   0.4119245E+01

     Phonon                                                                     

     bravais-lattice index     =            0
     lattice parameter (alat)  =       5.3778  a.u.
     unit-cell volume          =     109.9740 (a.u.)^3
     number of atoms/cell      =            1
     number of atomic types    =            1
     kinetic-energy cut-off    =      65.0000  Ry
     charge density cut-off    =     260.0000  Ry
     convergence threshold     =      1.0E-15
     beta                      =       0.3000
     number of iterations used =            4
     Exchange-correlation= PBE
                           (   1   4   3   4   0   0   0)


     celldm(1)=    5.37776  celldm(2)=    0.00000  celldm(3)=    0.00000
     celldm(4)=    0.00000  celldm(5)=    0.00000  celldm(6)=    0.00000

     crystal axes: (cart. coord. in units of alat)
               a(1) = (  0.0000  0.7071  0.7071 )  
               a(2) = (  0.7071  0.0000  0.7071 )  
               a(3) = (  0.7071  0.7071  0.0000 )  

     reciprocal axes: (cart. coord. in units 2 pi/alat)
               b(1) = ( -0.7071  0.7071  0.7071 )  
               b(2) = (  0.7071 -0.7071  0.7071 )  
               b(3) = (  0.7071  0.7071 -0.7071 )  


     Atoms inside the unit cell: 

     Cartesian axes

     site n.  atom      mass           positions (alat units)
        1     Al  26.9815   tau(    1) = (    0.00000    0.00000    0.00000  )

     Computing dynamical matrix for 
                    q = (  -0.2651650  -0.2651650   0.7954951 )

      2 Sym.Ops. (no q -> -q+G )


     G cutoff =  190.4658  (   7799 G-vectors)     FFT grid: ( 27, 27, 27)
     number of k points=   576

     PseudoPot. # 1 for Al read from file:
     ./Al.pbe-n-nc.UPF
     MD5 check sum: 670bd543589c27b6508fb047b2733a83
     Pseudo is Norm-conserving + core correction, Zval =  3.0
     Generated using "atomic" code by A. Dal Corso v.5.0.99 svn rev. 10869
     Using radial grid of 1135 points,  2 beta functions with: 
                l(1) =   0
                l(2) =   1


     Atomic displacements:
     There are   3 irreducible representations

     Representation     1      1 modes -  To be done

     Representation     2      1 modes -  To be done

     Representation     3      1 modes -  To be done



     Alpha used in Ewald sum =   2.8000
     PHONON       :   1m57.89s CPU   2m13.96s WALL



     Representation #  1 mode #   1

     Self-consistent Calculation

      iter #   1 total cpu time :   134.2 secs   av.it.:   1.1
      thresh= 1.000E-02 alpha_mix =  0.300 |ddv_scf|^2 =  7.940E-06

      iter #   2 total cpu time :   134.6 secs   av.it.:   2.1
      thresh= 2.818E-04 alpha_mix =  0.300 |ddv_scf|^2 =  7.672E-07

      iter #   3 total cpu time :   135.0 secs   av.it.:   2.0
      thresh= 8.759E-05 alpha_mix =  0.300 |ddv_scf|^2 =  2.195E-07

      iter #   4 total cpu time :   135.3 secs   av.it.:   2.1
      thresh= 4.685E-05 alpha_mix =  0.300 |ddv_scf|^2 =  2.720E-09

      iter #   5 total cpu time :   135.7 secs   av.it.:   2.4
      thresh= 5.215E-06 alpha_mix =  0.300 |ddv_scf|^2 =  7.769E-11

      iter #   6 total cpu time :   136.0 secs   av.it.:   2.3
      thresh= 8.814E-07 alpha_mix =  0.300 |ddv_scf|^2 =  2.262E-11

      iter #   7 total cpu time :   136.4 secs   av.it.:   2.4
      thresh= 4.756E-07 alpha_mix =  0.300 |ddv_scf|^2 =  1.984E-13

      iter #   8 total cpu time :   136.7 secs   av.it.:   2.6
      thresh= 4.454E-08 alpha_mix =  0.300 |ddv_scf|^2 =  4.554E-14

      iter #   9 total cpu time :   137.1 secs   av.it.:   2.2
      thresh= 2.134E-08 alpha_mix =  0.300 |ddv_scf|^2 =  6.543E-15

      iter #  10 total cpu time :   137.4 secs   av.it.:   2.5
      thresh= 8.089E-09 alpha_mix =  0.300 |ddv_scf|^2 =  1.443E-16

     End of self-consistent calculation

     Convergence has been achieved 


     Representation #  2 mode #   2

     Self-consistent Calculation

      iter #   1 total cpu time :   137.7 secs   av.it.:   1.2
      thresh= 1.000E-02 alpha_mix =  0.300 |ddv_scf|^2 =  1.002E-05

      iter #   2 total cpu time :   138.0 secs   av.it.:   2.1
      thresh= 3.166E-04 alpha_mix =  0.300 |ddv_scf|^2 =  1.068E-06

      iter #   3 total cpu time :   138.4 secs   av.it.:   2.1
      thresh= 1.033E-04 alpha_mix =  0.300 |ddv_scf|^2 =  2.105E-07

      iter #   4 total cpu time :   138.7 secs   av.it.:   2.1
      thresh= 4.588E-05 alpha_mix =  0.300 |ddv_scf|^2 =  2.291E-08

      iter #   5 total cpu time :   139.0 secs   av.it.:   2.1
      thresh= 1.514E-05 alpha_mix =  0.300 |ddv_scf|^2 =  1.230E-10

      iter #   6 total cpu time :   139.4 secs   av.it.:   2.6
      thresh= 1.109E-06 alpha_mix =  0.300 |ddv_scf|^2 =  2.541E-11

      iter #   7 total cpu time :   139.8 secs   av.it.:   2.2
      thresh= 5.041E-07 alpha_mix =  0.300 |ddv_scf|^2 =  2.823E-12

      iter #   8 total cpu time :   140.3 secs   av.it.:   2.3
      thresh= 1.680E-07 alpha_mix =  0.300 |ddv_scf|^2 =  6.328E-13

      iter #   9 total cpu time :   140.7 secs   av.it.:   2.4
      thresh= 7.955E-08 alpha_mix =  0.300 |ddv_scf|^2 =  3.859E-15

      iter #  10 total cpu time :   141.1 secs   av.it.:   2.6
      thresh= 6.212E-09 alpha_mix =  0.300 |ddv_scf|^2 =  9.318E-16

     End of self-consistent calculation

     Convergence has been achieved 


     Representation #  3 mode #   3

     Self-consistent Calculation

      iter #   1 total cpu time :   141.9 secs   av.it.:   1.0
      thresh= 1.000E-02 alpha_mix =  0.300 |ddv_scf|^2 =  1.125E-06

      iter #   2 total cpu time :   142.2 secs   av.it.:   2.0
      thresh= 1.061E-04 alpha_mix =  0.300 |ddv_scf|^2 =  5.396E-07

      iter #   3 total cpu time :   142.5 secs   av.it.:   2.1
      thresh= 7.346E-05 alpha_mix =  0.300 |ddv_scf|^2 =  2.138E-09

      iter #   4 total cpu time :   142.9 secs   av.it.:   2.6
      thresh= 4.624E-06 alpha_mix =  0.300 |ddv_scf|^2 =  7.054E-11

      iter #   5 total cpu time :   143.2 secs   av.it.:   2.4
      thresh= 8.399E-07 alpha_mix =  0.300 |ddv_scf|^2 =  1.474E-11

      iter #   6 total cpu time :   143.5 secs   av.it.:   2.4
      thresh= 3.839E-07 alpha_mix =  0.300 |ddv_scf|^2 =  4.320E-14

      iter #   7 total cpu time :   143.9 secs   av.it.:   2.6
      thresh= 2.078E-08 alpha_mix =  0.300 |ddv_scf|^2 =  1.063E-14

      iter #   8 total cpu time :   144.2 secs   av.it.:   2.2
      thresh= 1.031E-08 alpha_mix =  0.300 |ddv_scf|^2 =  2.914E-17

     End of self-consistent calculation

     Convergence has been achieved 

     Number of q in the star =   24
     List of q in the star:
          1  -0.265165043  -0.265165043   0.795495129
          2   0.795495129  -0.265165043  -0.265165043
          3  -0.265165043   0.795495129  -0.265165043
          4  -0.265165043   0.265165043   0.795495129
          5   0.265165043  -0.265165043   0.795495129
          6   0.795495129   0.265165043  -0.265165043
          7  -0.795495129   0.265165043   0.265165043
          8   0.795495129  -0.265165043   0.265165043
          9  -0.795495129  -0.265165043  -0.265165043
         10   0.265165043   0.795495129  -0.265165043
         11   0.265165043  -0.795495129   0.265165043
         12  -0.265165043   0.795495129   0.265165043
         13  -0.265165043  -0.795495129  -0.265165043
         14   0.265165043   0.265165043   0.795495129
         15   0.265165043   0.795495129   0.265165043
         16  -0.265165043  -0.795495129   0.265165043
         17   0.265165043  -0.795495129  -0.265165043
         18   0.265165043  -0.265165043  -0.795495129
         19   0.795495129   0.265165043   0.265165043
         20  -0.795495129   0.265165043  -0.265165043
         21  -0.795495129  -0.265165043   0.265165043
         22   0.265165043   0.265165043  -0.795495129
         23  -0.265165043  -0.265165043  -0.795495129
         24  -0.265165043   0.265165043  -0.795495129

     Diagonalizing the dynamical matrix

     q = (   -0.265165043  -0.265165043   0.795495129 ) 

 **************************************************************************
     freq (    1) =       5.237005 [THz] =     174.687683 [cm-1]
     freq (    2) =       7.400359 [THz] =     246.849391 [cm-1]
     freq (    3) =       9.055342 [THz] =     302.053696 [cm-1]
 **************************************************************************

     init_run     :      1.26s CPU      1.33s WALL (      10 calls)
     electrons    :     21.39s CPU     24.86s WALL (      10 calls)

     Called by init_run:
     wfcinit      :      0.00s CPU      0.00s WALL (      10 calls)
     potinit      :      0.20s CPU      0.23s WALL (      10 calls)
     hinit0       :      0.98s CPU      0.98s WALL (      10 calls)

     Called by electrons:
     c_bands      :     20.25s CPU     23.71s WALL (      10 calls)
     v_of_rho     :      0.18s CPU      0.19s WALL (      11 calls)

     Called by c_bands:
     init_us_2    :      0.71s CPU      0.76s WALL (    3861 calls)
     cegterg      :     15.75s CPU     15.84s WALL (     234 calls)

     Called by sum_band:

     Called by *egterg:
     h_psi        :     53.45s CPU     53.97s WALL (   22752 calls)
     g_psi        :      0.08s CPU      0.08s WALL (    3392 calls)
     cdiaghg      :      0.41s CPU      0.41s WALL (    3604 calls)

     Called by h_psi:
     h_psi:calbec :      0.71s CPU      0.72s WALL (   22752 calls)
     vloc_psi     :     51.96s CPU     52.46s WALL (   22752 calls)
     add_vuspsi   :      0.61s CPU      0.62s WALL (   22752 calls)

     General routines
     calbec       :      1.30s CPU      1.33s WALL (   43998 calls)
     fft          :      2.39s CPU      2.46s WALL (    4189 calls)
     ffts         :      0.22s CPU      0.23s WALL (     402 calls)
     fftw         :     78.26s CPU     79.37s WALL (  202006 calls)
     davcio       :      0.78s CPU      2.11s WALL (   18890 calls)

     Parallel routines

     PHONON       :   2m 6.26s CPU   2m24.27s WALL

     INITIALIZATION: 
     phq_setup    :      0.59s CPU      0.67s WALL (      10 calls)
     phq_init     :      8.14s CPU      8.39s WALL (      10 calls)

     phq_init     :      8.14s CPU      8.39s WALL (      10 calls)
     set_drhoc    :      5.72s CPU      5.72s WALL (      30 calls)
     init_vloc    :      0.03s CPU      0.03s WALL (      11 calls)
     init_us_1    :      0.44s CPU      0.44s WALL (      11 calls)

     DYNAMICAL MATRIX:
     dynmat0      :      4.31s CPU      4.53s WALL (      10 calls)
     phqscf       :     93.35s CPU    107.37s WALL (      10 calls)
     dynmatrix    :      0.01s CPU      0.04s WALL (      10 calls)

     phqscf       :     93.35s CPU    107.37s WALL (      10 calls)
     solve_linter :     93.04s CPU    106.82s WALL (      28 calls)
     drhodv       :      0.27s CPU      0.37s WALL (      28 calls)

     dynmat0      :      4.31s CPU      4.53s WALL (      10 calls)
     dynmat_us    :      0.24s CPU      0.37s WALL (      10 calls)
     d2ionq       :      0.01s CPU      0.01s WALL (      10 calls)
     dynmatcc     :      3.98s CPU      3.98s WALL (      10 calls)

     dynmat_us    :      0.24s CPU      0.37s WALL (      10 calls)

     phqscf       :     93.35s CPU    107.37s WALL (      10 calls)
     solve_linter :     93.04s CPU    106.82s WALL (      28 calls)

     solve_linter :     93.04s CPU    106.82s WALL (      28 calls)
     dvqpsi_us    :      1.85s CPU      1.89s WALL (     318 calls)
     ortho        :      0.68s CPU      0.68s WALL (    3209 calls)
     cgsolve      :     43.15s CPU     43.58s WALL (    3209 calls)
     incdrhoscf   :     16.11s CPU     16.36s WALL (    3209 calls)
     vpsifft      :     14.31s CPU     14.75s WALL (    2891 calls)
     dv_of_drho   :      2.74s CPU      2.83s WALL (     299 calls)
     mix_pot      :      0.56s CPU      0.90s WALL (     283 calls)
     psymdvscf    :      1.01s CPU      1.03s WALL (     220 calls)

     dvqpsi_us    :      1.85s CPU      1.89s WALL (     318 calls)
     dvqpsi_us_on :      0.08s CPU      0.08s WALL (     318 calls)

     cgsolve      :     43.15s CPU     43.58s WALL (    3209 calls)
     ch_psi       :     42.29s CPU     42.72s WALL (   18914 calls)

     ch_psi       :     42.29s CPU     42.72s WALL (   18914 calls)
     h_psi        :     53.45s CPU     53.97s WALL (   22752 calls)
     last         :      2.28s CPU      2.30s WALL (   18914 calls)

     h_psi        :     53.45s CPU     53.97s WALL (   22752 calls)
     add_vuspsi   :      0.61s CPU      0.62s WALL (   22752 calls)

     incdrhoscf   :     16.11s CPU     16.36s WALL (    3209 calls)


      General routines
     calbec       :      1.30s CPU      1.33s WALL (   43998 calls)
     fft          :      2.39s CPU      2.46s WALL (    4189 calls)
     ffts         :      0.22s CPU      0.23s WALL (     402 calls)
     fftw         :     78.26s CPU     79.37s WALL (  202006 calls)
     davcio       :      0.78s CPU      2.11s WALL (   18890 calls)
     write_rec    :      0.25s CPU      1.77s WALL (     311 calls)


     PHONON       :   2m 6.27s CPU   2m24.28s WALL


   This run was terminated on:  20:29:39  22Nov2019            

=------------------------------------------------------------------------------=
   JOB DONE.
=------------------------------------------------------------------------------=
