
     Program PWSCF v.6.4.1 starts on 22Nov2019 at 20:25:44 

     This program is part of the open-source Quantum ESPRESSO suite
     for quantum simulation of materials; please cite
         "P. Giannozzi et al., J. Phys.:Condens. Matter 21 395502 (2009);
         "P. Giannozzi et al., J. Phys.:Condens. Matter 29 465901 (2017);
          URL http://www.quantum-espresso.org", 
     in publications or presentations arising from this work. More details at
     http://www.quantum-espresso.org/quote

     Parallel version (MPI & OpenMP), running on      29 processor cores
     Number of MPI processes:                29
     Threads/MPI process:                     1

     MPI processes distributed on     1 nodes
     K-points division:     npool     =      29
     Reading input from scf.in

     Current dimensions of program PWSCF are:
     Max number of different atomic species (ntypx) = 10
     Max number of k-points (npk) = 400000
     Max angular momentum in pseudopotentials (lmaxx) =  3

     Subspace diagonalization in iterative solution of the eigenvalue problem:
     a serial algorithm will be used

     Message from routine setup:
     using ibrav=0 with symmetry is DISCOURAGED, use correct ibrav instead
     [opt_tetra]  Optimized tetrahedron method is used.

     G-vector sticks info
     --------------------
     sticks:   dense  smooth     PW     G-vecs:    dense   smooth      PW
     Sum         511     511    163                 7799     7799    1411



     bravais-lattice index     =            0
     lattice parameter (alat)  =       5.3778  a.u.
     unit-cell volume          =     109.9740 (a.u.)^3
     number of atoms/cell      =            1
     number of atomic types    =            1
     number of electrons       =         3.00
     number of Kohn-Sham states=            6
     kinetic-energy cutoff     =      65.0000  Ry
     charge density cutoff     =     260.0000  Ry
     convergence threshold     =      1.0E-10
     mixing beta               =       0.3000
     number of iterations used =            8  plain     mixing
     Exchange-correlation= PBE
                           (   1   4   3   4   0   0   0)

     celldm(1)=   5.377763  celldm(2)=   0.000000  celldm(3)=   0.000000
     celldm(4)=   0.000000  celldm(5)=   0.000000  celldm(6)=   0.000000

     crystal axes: (cart. coord. in units of alat)
               a(1) = (   0.000000   0.707107   0.707107 )  
               a(2) = (   0.707107   0.000000   0.707107 )  
               a(3) = (   0.707107   0.707107   0.000000 )  

     reciprocal axes: (cart. coord. in units 2 pi/alat)
               b(1) = ( -0.707107  0.707107  0.707107 )  
               b(2) = (  0.707107 -0.707107  0.707107 )  
               b(3) = (  0.707107  0.707107 -0.707107 )  


     PseudoPot. # 1 for Al read from file:
     ./Al.pbe-n-nc.UPF
     MD5 check sum: 670bd543589c27b6508fb047b2733a83
     Pseudo is Norm-conserving + core correction, Zval =  3.0
     Generated using "atomic" code by A. Dal Corso v.5.0.99 svn rev. 10869
     Using radial grid of 1135 points,  2 beta functions with: 
                l(1) =   0
                l(2) =   1

     atomic species   valence    mass     pseudopotential
        Al             3.00    26.98154     Al( 1.00)

     48 Sym. Ops., with inversion, found



   Cartesian axes

     site n.     atom                  positions (alat units)
         1           Al  tau(   1) = (   0.0000000   0.0000000   0.0000000  )

     number of k points=    29 (tetrahedron method)
                       cart. coord. in units 2pi/alat
        k(    1) = (   0.0000000   0.0000000   0.0000000), wk =   0.0039062
        k(    2) = (   0.0883883   0.0883883  -0.0883883), wk =   0.0312500
        k(    3) = (   0.1767767   0.1767767  -0.1767767), wk =   0.0312500
        k(    4) = (   0.2651650   0.2651650  -0.2651650), wk =   0.0312500
        k(    5) = (  -0.3535534  -0.3535534   0.3535534), wk =   0.0156250
        k(    6) = (   0.1767767   0.0000000  -0.0000000), wk =   0.0234375
        k(    7) = (   0.2651650   0.0883883  -0.0883883), wk =   0.0937500
        k(    8) = (   0.3535534   0.1767767  -0.1767767), wk =   0.0937500
        k(    9) = (  -0.2651650  -0.4419417   0.4419417), wk =   0.0937500
        k(   10) = (  -0.1767767  -0.3535534   0.3535534), wk =   0.0937500
        k(   11) = (  -0.0883883  -0.2651650   0.2651650), wk =   0.0937500
        k(   12) = (   0.0000000  -0.1767767   0.1767767), wk =   0.0468750
        k(   13) = (   0.3535534   0.0000000  -0.0000000), wk =   0.0234375
        k(   14) = (   0.4419417   0.0883883  -0.0883883), wk =   0.0937500
        k(   15) = (  -0.1767767  -0.5303301   0.5303301), wk =   0.0937500
        k(   16) = (  -0.0883883  -0.4419417   0.4419417), wk =   0.0937500
        k(   17) = (   0.0000000  -0.3535534   0.3535534), wk =   0.0468750
        k(   18) = (   0.5303301   0.0000000  -0.0000000), wk =   0.0234375
        k(   19) = (  -0.0883883  -0.6187184   0.6187184), wk =   0.0937500
        k(   20) = (  -0.0000000  -0.5303301   0.5303301), wk =   0.0468750
        k(   21) = (  -0.7071068  -0.0000000   0.0000000), wk =   0.0117188
        k(   22) = (   0.3535534   0.1767767   0.0000000), wk =   0.0937500
        k(   23) = (  -0.2651650  -0.4419417   0.6187184), wk =   0.1875000
        k(   24) = (  -0.1767767  -0.3535534   0.5303301), wk =   0.0937500
        k(   25) = (  -0.1767767  -0.5303301   0.7071068), wk =   0.0937500
        k(   26) = (  -0.0883883  -0.4419417   0.6187184), wk =   0.1875000
        k(   27) = (   0.0000000  -0.3535534   0.5303301), wk =   0.0937500
        k(   28) = (  -0.7071068   0.1767767  -0.0000000), wk =   0.0468750
        k(   29) = (  -0.7071068   0.3535534  -0.0000000), wk =   0.0234375

     Dense  grid:     7799 G-vectors     FFT dimensions: (  27,  27,  27)

     Estimated max dynamical RAM per process >       5.58 MB

     Estimated total dynamical RAM >     161.74 MB

     Check: negative core charge=   -0.000002

     Initial potential from superposition of free atoms

     starting charge    2.99771, renormalised to    3.00000
     Starting wfcs are    4 randomized atomic wfcs +    2 random wfcs

     total cpu time spent up to now is        0.5 secs

     Self-consistent Calculation

     iteration #  1     ecut=    65.00 Ry     beta= 0.30
     Davidson diagonalization with overlap
     ethr =  1.00E-02,  avg # of iterations =  4.9

     Threshold (ethr) on eigenvalues was too large:
     Diagonalizing with lowered threshold

     Davidson diagonalization with overlap
     ethr =  2.54E-04,  avg # of iterations =  1.6

     total cpu time spent up to now is        0.8 secs

     total energy              =      -5.47807114 Ry
     Harris-Foulkes estimate   =      -5.47984911 Ry
     estimated scf accuracy    <       0.00744914 Ry

     iteration #  2     ecut=    65.00 Ry     beta= 0.30
     Davidson diagonalization with overlap
     ethr =  2.48E-04,  avg # of iterations =  1.0

     total cpu time spent up to now is        1.0 secs

     total energy              =      -5.47649287 Ry
     Harris-Foulkes estimate   =      -5.47810590 Ry
     estimated scf accuracy    <       0.00338819 Ry

     iteration #  3     ecut=    65.00 Ry     beta= 0.30
     Davidson diagonalization with overlap
     ethr =  1.13E-04,  avg # of iterations =  1.0

     total cpu time spent up to now is        1.2 secs

     total energy              =      -5.47664555 Ry
     Harris-Foulkes estimate   =      -5.47664645 Ry
     estimated scf accuracy    <       0.00000673 Ry

     iteration #  4     ecut=    65.00 Ry     beta= 0.30
     Davidson diagonalization with overlap
     ethr =  2.24E-07,  avg # of iterations =  3.2

     total cpu time spent up to now is        1.4 secs

     total energy              =      -5.47664978 Ry
     Harris-Foulkes estimate   =      -5.47665005 Ry
     estimated scf accuracy    <       0.00000132 Ry

     iteration #  5     ecut=    65.00 Ry     beta= 0.30
     Davidson diagonalization with overlap
     ethr =  4.39E-08,  avg # of iterations =  1.0

     total cpu time spent up to now is        1.6 secs

     total energy              =      -5.47664977 Ry
     Harris-Foulkes estimate   =      -5.47664986 Ry
     estimated scf accuracy    <       0.00000016 Ry

     iteration #  6     ecut=    65.00 Ry     beta= 0.30
     Davidson diagonalization with overlap
     ethr =  5.25E-09,  avg # of iterations =  1.0

     total cpu time spent up to now is        1.7 secs

     total energy              =      -5.47664978 Ry
     Harris-Foulkes estimate   =      -5.47664978 Ry
     estimated scf accuracy    <          1.8E-09 Ry

     iteration #  7     ecut=    65.00 Ry     beta= 0.30
     Davidson diagonalization with overlap
     ethr =  6.01E-11,  avg # of iterations =  1.1

     total cpu time spent up to now is        1.9 secs

     End of self-consistent calculation

          k = 0.0000 0.0000 0.0000 (   941 PWs)   bands (ev):

    -3.2322  20.7227  20.7227  22.1395  22.1396  22.1396

          k = 0.0884 0.0884-0.0884 (   953 PWs)   bands (ev):

    -2.8017  16.3728  19.7540  19.7540  22.6970  23.7014

          k = 0.1768 0.1768-0.1768 (   962 PWs)   bands (ev):

    -1.5189  11.4741  18.9823  18.9823  22.2578  22.8456

          k = 0.2652 0.2652-0.2652 (   972 PWs)   bands (ev):

     0.5916   7.1452  18.8905  18.8905  20.8469  20.8469

          k =-0.3536-0.3536 0.3536 (   978 PWs)   bands (ev):

     3.3762   3.6169  19.4712  19.4712  19.5514  19.5514

          k = 0.1768 0.0000-0.0000 (   950 PWs)   bands (ev):

    -2.6586  17.9852  17.9852  18.2345  20.8764  22.7459

          k = 0.2652 0.0884-0.0884 (   962 PWs)   bands (ev):

    -1.6608  13.3457  16.9172  18.3964  19.6528  22.1489

          k = 0.3536 0.1768-0.1768 (   964 PWs)   bands (ev):

     0.1719   8.8556  16.5685  17.2767  18.2029  24.3450

          k =-0.2652-0.4419 0.4419 (   976 PWs)   bands (ev):

     2.8013   4.9979  15.6397  16.9426  18.6405  22.8169

          k =-0.1768-0.3536 0.3536 (   975 PWs)   bands (ev):

     1.8408   6.2015  14.7548  18.0408  19.8276  21.9686

          k =-0.0884-0.2652 0.2652 (   964 PWs)   bands (ev):

    -0.5298  10.2651  14.6546  19.8440  21.7286  21.8196

          k = 0.0000-0.1768 0.1768 (   963 PWs)   bands (ev):

    -2.0875  14.5028  15.7339  21.8358  22.0952  23.4716

          k = 0.3536 0.0000-0.0000 (   982 PWs)   bands (ev):

    -0.9530  15.5334  15.5873  15.5873  16.3086  18.8895

          k = 0.4419 0.0884-0.0884 (   981 PWs)   bands (ev):

     0.5899  11.2577  13.6232  14.9880  16.3993  20.3693

          k =-0.1768-0.5303 0.5303 (   977 PWs)   bands (ev):

     2.9331   7.2566  11.6896  15.1153  16.7211  24.1110

          k =-0.0884-0.4419 0.4419 (   974 PWs)   bands (ev):

     3.8903   6.0270  10.5625  15.9698  17.7067  25.7723

          k = 0.0000-0.3536 0.3536 (   975 PWs)   bands (ev):

     1.2868   9.2620  10.7810  17.5521  19.4255  25.1408

          k = 0.5303 0.0000-0.0000 (   982 PWs)   bands (ev):

     1.8337  10.6156  13.8568  14.1416  14.1416  17.4533

          k =-0.0884-0.6187 0.6187 (   978 PWs)   bands (ev):

     3.8552   8.3911  10.2414  14.0232  15.3307  19.4211

          k =-0.0000-0.5303 0.5303 (   977 PWs)   bands (ev):

     6.1133   6.6415   7.6260  14.6316  16.1937  23.6766

          k =-0.7071-0.0000 0.0000 (   982 PWs)   bands (ev):

     5.0659   6.4108  13.2936  13.6600  13.6600  16.9452

          k = 0.3536 0.1768 0.0000 (   971 PWs)   bands (ev):

    -0.3893  11.8887  13.2936  16.8226  20.2308  21.8823

          k =-0.2652-0.4419 0.6187 (   977 PWs)   bands (ev):

     1.7013   8.1526  12.6162  14.6795  20.8192  22.8976

          k =-0.1768-0.3536 0.5303 (   972 PWs)   bands (ev):

     4.4335   4.7166  13.0171  13.4785  21.3738  21.7090

          k =-0.1768-0.5303 0.7071 (   977 PWs)   bands (ev):

     2.3847  10.3135  11.0272  11.9282  18.7262  20.5865

          k =-0.0884-0.4419 0.6187 (   977 PWs)   bands (ev):

     4.9305   7.0806   9.4823  11.6571  19.8724  23.9984

          k = 0.0000-0.3536 0.5303 (   976 PWs)   bands (ev):

     4.0227   7.6868   9.1762  12.7645  21.0818  24.4207

          k =-0.7071 0.1768-0.0000 (   974 PWs)   bands (ev):

     5.5895   6.9540   9.7877  11.3122  18.2138  20.1250

          k =-0.7071 0.3536-0.0000 (   952 PWs)   bands (ev):

     7.1621   7.1621   8.1784   9.1400  23.9402  23.9402

     the Fermi energy is     7.9694 ev

!    total energy              =      -5.47664978 Ry
     Harris-Foulkes estimate   =      -5.47664978 Ry
     estimated scf accuracy    <          5.1E-11 Ry

     The total energy is the sum of the following terms:

     one-electron contribution =       2.96959805 Ry
     hartree contribution      =       0.00715746 Ry
     xc contribution           =      -3.02775107 Ry
     ewald contribution        =      -5.42565423 Ry

     convergence has been achieved in   7 iterations

     Writing output data file ./pwscf.save/

     init_run     :      0.14s CPU      0.15s WALL (       1 calls)
     electrons    :      1.43s CPU      1.46s WALL (       1 calls)

     Called by init_run:
     wfcinit      :      0.01s CPU      0.01s WALL (       1 calls)
     potinit      :      0.02s CPU      0.03s WALL (       1 calls)
     hinit0       :      0.10s CPU      0.10s WALL (       1 calls)

     Called by electrons:
     c_bands      :      0.14s CPU      0.15s WALL (       8 calls)
     sum_band     :      1.13s CPU      1.14s WALL (       8 calls)
     v_of_rho     :      0.15s CPU      0.15s WALL (       8 calls)
     mix_rho      :      0.02s CPU      0.02s WALL (       8 calls)

     Called by c_bands:
     init_us_2    :      0.00s CPU      0.00s WALL (      17 calls)
     cegterg      :      0.11s CPU      0.11s WALL (       8 calls)

     Called by sum_band:

     Called by *egterg:
     h_psi        :      0.10s CPU      0.10s WALL (      25 calls)
     g_psi        :      0.00s CPU      0.00s WALL (      16 calls)
     cdiaghg      :      0.00s CPU      0.00s WALL (      23 calls)

     Called by h_psi:
     h_psi:calbec :      0.00s CPU      0.00s WALL (      25 calls)
     vloc_psi     :      0.10s CPU      0.10s WALL (      25 calls)
     add_vuspsi   :      0.00s CPU      0.00s WALL (      25 calls)

     General routines
     calbec       :      0.00s CPU      0.00s WALL (      25 calls)
     fft          :      0.05s CPU      0.05s WALL (      81 calls)
     ffts         :      0.00s CPU      0.01s WALL (       8 calls)
     fftw         :      0.11s CPU      0.11s WALL (     292 calls)

     Parallel routines

     PWSCF        :      1.89s CPU      1.93s WALL


   This run was terminated on:  20:25:46  22Nov2019            

=------------------------------------------------------------------------------=
   JOB DONE.
=------------------------------------------------------------------------------=
