--------------------------------------------------------------------------
Open MPI's OFI driver detected multiple equidistant NICs from the current process,
but had insufficient information to ensure MPI processes fairly pick a NIC for use.
This may negatively impact performance. A more modern PMIx server is necessary to
resolve this issue.

Note: This message is displayed only when the OFI component's verbosity level is
-953612112 or higher.
--------------------------------------------------------------------------
--------------------------------------------------------------------------
WARNING: There was an error initializing an OpenFabrics device.

  Local host:   macloud2
  Local device: mlx4_0
--------------------------------------------------------------------------

     Program PWSCF v.6.7GPU starts on 29Jun2022 at 11:47:30 

     This program is part of the open-source Quantum ESPRESSO suite
     for quantum simulation of materials; please cite
         "P. Giannozzi et al., J. Phys.:Condens. Matter 21 395502 (2009);
         "P. Giannozzi et al., J. Phys.:Condens. Matter 29 465901 (2017);
         "P. Giannozzi et al., J. Chem. Phys. 152 154105 (2020);
          URL http://www.quantum-espresso.org", 
     in publications or presentations arising from this work. More details at
     http://www.quantum-espresso.org/quote

     Parallel version (MPI & OpenMP), running on      24 processor cores
     Number of MPI processes:                24
     Threads/MPI process:                     1

     MPI processes distributed on     1 nodes
     K-points division:     npool     =      24
     Reading input from band.in

     Current dimensions of program PWSCF are:
     Max number of different atomic species (ntypx) = 10
     Max number of k-points (npk) =  40000
     Max angular momentum in pseudopotentials (lmaxx) =  3

     Atomic positions and unit cell read from directory:
     ./pwscf.save/

     Message from routine setup:
     using ibrav=0 with symmetry is DISCOURAGED, use correct ibrav instead

     Subspace diagonalization in iterative solution of the eigenvalue problem:
     a serial algorithm will be used


     G-vector sticks info
     --------------------
     sticks:   dense  smooth     PW     G-vecs:    dense   smooth      PW
     Sum         559     283     91                 8801     3119     609

     Using Slab Decomposition



     bravais-lattice index     =            0
     lattice parameter (alat)  =       5.3877  a.u.
     unit-cell volume          =     110.5871 (a.u.)^3
     number of atoms/cell      =            1
     number of atomic types    =            1
     number of electrons       =         3.00
     number of Kohn-Sham states=           15
     kinetic-energy cutoff     =      35.0000  Ry
     charge density cutoff     =     280.0000  Ry
     Exchange-correlation= PBE
                           (   1   4   3   4   0   0   0)

     celldm(1)=   5.387739  celldm(2)=   0.000000  celldm(3)=   0.000000
     celldm(4)=   0.000000  celldm(5)=   0.000000  celldm(6)=   0.000000

     crystal axes: (cart. coord. in units of alat)
               a(1) = (   0.000000   0.707107   0.707107 )  
               a(2) = (   0.707107   0.000000   0.707107 )  
               a(3) = (   0.707107   0.707107   0.000000 )  

     reciprocal axes: (cart. coord. in units 2 pi/alat)
               b(1) = ( -0.707107  0.707107  0.707107 )  
               b(2) = (  0.707107 -0.707107  0.707107 )  
               b(3) = (  0.707107  0.707107 -0.707107 )  


     PseudoPot. # 1 for Al read from file:
     ../../../pseudo/Al.pbe-n-rrkjus_psl.0.1.UPF
     MD5 check sum: 6479f6627750700cef6db36d98bbe09a
     Pseudo is Ultrasoft + core correction, Zval =  3.0
     Generated using "atomic" code by A. Dal Corso  v.5.0.99 svn rev. 10869
     Using radial grid of 1135 points,  4 beta functions with: 
                l(1) =   0
                l(2) =   0
                l(3) =   1
                l(4) =   1
     Q(r) pseudized with 0 coefficients 


     atomic species   valence    mass     pseudopotential
        Al             3.00    26.98154     Al( 1.00)

     48 Sym. Ops., with inversion, found



   Cartesian axes

     site n.     atom                  positions (alat units)
         1           Al  tau(   1) = (   0.0000000   0.0000000   0.0000000  )

     number of k points=    63
                       cart. coord. in units 2pi/alat
        k(    1) = (   0.0000000   0.0000000   0.0000000), wk =   0.0317460
        k(    2) = (   0.0000000   0.0505072   0.0000000), wk =   0.0317460
        k(    3) = (   0.0000000   0.1010159   0.0000000), wk =   0.0317460
        k(    4) = (   0.0000000   0.1515231   0.0000000), wk =   0.0317460
        k(    5) = (   0.0000000   0.2020303   0.0000000), wk =   0.0317460
        k(    6) = (   0.0000000   0.2525375   0.0000000), wk =   0.0317460
        k(    7) = (   0.0000000   0.3030462   0.0000000), wk =   0.0317460
        k(    8) = (   0.0000000   0.3535534   0.0000000), wk =   0.0317460
        k(    9) = (   0.0000000   0.4040606   0.0000000), wk =   0.0317460
        k(   10) = (   0.0000000   0.4545693   0.0000000), wk =   0.0317460
        k(   11) = (   0.0000000   0.5050765   0.0000000), wk =   0.0317460
        k(   12) = (   0.0000000   0.5555837   0.0000000), wk =   0.0317460
        k(   13) = (   0.0000000   0.6060909   0.0000000), wk =   0.0317460
        k(   14) = (   0.0000000   0.6565996   0.0000000), wk =   0.0317460
        k(   15) = (   0.0000000   0.7071068   0.0000000), wk =   0.0317460
        k(   16) = (   0.0441942   0.7071068   0.0441942), wk =   0.0317460
        k(   17) = (   0.0883883   0.7071068   0.0883883), wk =   0.0317460
        k(   18) = (   0.1325825   0.7071068   0.1325825), wk =   0.0317460
        k(   19) = (   0.1767767   0.7071068   0.1767767), wk =   0.0317460
        k(   20) = (   0.5303301   0.5303301   0.0000000), wk =   0.0317460
        k(   21) = (   0.4949747   0.4949747   0.0000000), wk =   0.0317460
        k(   22) = (   0.4596194   0.4596194   0.0000000), wk =   0.0317460
        k(   23) = (   0.4242641   0.4242641   0.0000000), wk =   0.0317460
        k(   24) = (   0.3889087   0.3889087   0.0000000), wk =   0.0317460
        k(   25) = (   0.3535534   0.3535534   0.0000000), wk =   0.0317460
        k(   26) = (   0.3181981   0.3181981   0.0000000), wk =   0.0317460
        k(   27) = (   0.2828427   0.2828427   0.0000000), wk =   0.0317460
        k(   28) = (   0.2474874   0.2474874   0.0000000), wk =   0.0317460
        k(   29) = (   0.2121320   0.2121320   0.0000000), wk =   0.0317460
        k(   30) = (   0.1767767   0.1767767   0.0000000), wk =   0.0317460
        k(   31) = (   0.1414214   0.1414214   0.0000000), wk =   0.0317460
        k(   32) = (   0.1060660   0.1060660   0.0000000), wk =   0.0317460
        k(   33) = (   0.0707107   0.0707107   0.0000000), wk =   0.0317460
        k(   34) = (   0.0353553   0.0353553   0.0000000), wk =   0.0317460
        k(   35) = (   0.0000000   0.0000000   0.0000000), wk =   0.0317460
        k(   36) = (   0.0294630   0.0294630   0.0294630), wk =   0.0317460
        k(   37) = (   0.0589253   0.0589253   0.0589253), wk =   0.0317460
        k(   38) = (   0.0883883   0.0883883   0.0883883), wk =   0.0317460
        k(   39) = (   0.1178514   0.1178514   0.1178514), wk =   0.0317460
        k(   40) = (   0.1473137   0.1473137   0.1473137), wk =   0.0317460
        k(   41) = (   0.1767767   0.1767767   0.1767767), wk =   0.0317460
        k(   42) = (   0.2062397   0.2062397   0.2062397), wk =   0.0317460
        k(   43) = (   0.2357020   0.2357020   0.2357020), wk =   0.0317460
        k(   44) = (   0.2651650   0.2651650   0.2651650), wk =   0.0317460
        k(   45) = (   0.2946281   0.2946281   0.2946281), wk =   0.0317460
        k(   46) = (   0.3240904   0.3240904   0.3240904), wk =   0.0317460
        k(   47) = (   0.3535534   0.3535534   0.3535534), wk =   0.0317460
        k(   48) = (   0.3535534   0.3889087   0.3181981), wk =   0.0317460
        k(   49) = (   0.3535534   0.4242641   0.2828427), wk =   0.0317460
        k(   50) = (   0.3535534   0.4596194   0.2474874), wk =   0.0317460
        k(   51) = (   0.3535534   0.4949747   0.2121320), wk =   0.0317460
        k(   52) = (   0.3535534   0.5303301   0.1767767), wk =   0.0317460
        k(   53) = (   0.3535534   0.5656854   0.1414214), wk =   0.0317460
        k(   54) = (   0.3535534   0.6010408   0.1060660), wk =   0.0317460
        k(   55) = (   0.3535534   0.6363961   0.0707107), wk =   0.0317460
        k(   56) = (   0.3535534   0.6717514   0.0353553), wk =   0.0317460
        k(   57) = (   0.3535534   0.7071068   0.0000000), wk =   0.0317460
        k(   58) = (   0.2946274   0.7071068   0.0000000), wk =   0.0317460
        k(   59) = (   0.2357027   0.7071068   0.0000000), wk =   0.0317460
        k(   60) = (   0.1767767   0.7071068   0.0000000), wk =   0.0317460
        k(   61) = (   0.1178507   0.7071068   0.0000000), wk =   0.0317460
        k(   62) = (   0.0589260   0.7071068   0.0000000), wk =   0.0317460
        k(   63) = (   0.0000000   0.7071068   0.0000000), wk =   0.0317460

     Dense  grid:     8801 G-vectors     FFT dimensions: (  30,  30,  30)

     Smooth grid:     3119 G-vectors     FFT dimensions: (  24,  24,  24)

     Estimated max dynamical RAM per process >       4.08 MB

     Estimated total dynamical RAM >      97.81 MB

     Check: negative core charge=   -0.000003

     The potential is recalculated from file :
     ./pwscf.save/charge-density

     Starting wfcs are    4 randomized atomic wfcs +   11 random wfcs

     Band Structure Calculation
     Davidson diagonalization with overlap
At line 106 of file init_us_2_base.f90
Fortran runtime warning: An array temporary was created
At line 106 of file init_us_2_base.f90
Fortran runtime warning: An array temporary was created
At line 106 of file init_us_2_base.f90
Fortran runtime warning: An array temporary was created
At line 106 of file init_us_2_base.f90
Fortran runtime warning: An array temporary was created
At line 106 of file init_us_2_base.f90
Fortran runtime warning: An array temporary was created
At line 106 of file init_us_2_base.f90
Fortran runtime warning: An array temporary was created
At line 106 of file init_us_2_base.f90
Fortran runtime warning: An array temporary was created
At line 106 of file init_us_2_base.f90
Fortran runtime warning: An array temporary was created
At line 106 of file init_us_2_base.f90
Fortran runtime warning: An array temporary was created
At line 106 of file init_us_2_base.f90
Fortran runtime warning: An array temporary was created
At line 106 of file init_us_2_base.f90
Fortran runtime warning: An array temporary was created
At line 106 of file init_us_2_base.f90
Fortran runtime warning: An array temporary was created
At line 106 of file init_us_2_base.f90
Fortran runtime warning: An array temporary was created
At line 106 of file init_us_2_base.f90
Fortran runtime warning: An array temporary was created
At line 106 of file init_us_2_base.f90
Fortran runtime warning: An array temporary was created
At line 106 of file init_us_2_base.f90
Fortran runtime warning: An array temporary was created
At line 106 of file init_us_2_base.f90
Fortran runtime warning: An array temporary was created
At line 106 of file init_us_2_base.f90
Fortran runtime warning: An array temporary was created
At line 106 of file init_us_2_base.f90
Fortran runtime warning: An array temporary was created
At line 106 of file init_us_2_base.f90
Fortran runtime warning: An array temporary was created
At line 106 of file init_us_2_base.f90
Fortran runtime warning: An array temporary was created
At line 106 of file init_us_2_base.f90
Fortran runtime warning: An array temporary was created
At line 106 of file init_us_2_base.f90
Fortran runtime warning: An array temporary was created
At line 106 of file init_us_2_base.f90
Fortran runtime warning: An array temporary was created
At line 1740 of file mp.f90
Fortran runtime warning: An array temporary was created
At line 1740 of file mp.f90
Fortran runtime warning: An array temporary was created
At line 1740 of file mp.f90
Fortran runtime warning: An array temporary was created
At line 1740 of file mp.f90
Fortran runtime warning: An array temporary was created
At line 1740 of file mp.f90
Fortran runtime warning: An array temporary was created
At line 1740 of file mp.f90
Fortran runtime warning: An array temporary was created
At line 1740 of file mp.f90
Fortran runtime warning: An array temporary was created
At line 1740 of file mp.f90
Fortran runtime warning: An array temporary was created
At line 1740 of file mp.f90
Fortran runtime warning: An array temporary was created
At line 1740 of file mp.f90
Fortran runtime warning: An array temporary was created
At line 1740 of file mp.f90
Fortran runtime warning: An array temporary was created
At line 1740 of file mp.f90
Fortran runtime warning: An array temporary was created
At line 1740 of file mp.f90
Fortran runtime warning: An array temporary was created
At line 1740 of file mp.f90
Fortran runtime warning: An array temporary was created
At line 1740 of file mp.f90
Fortran runtime warning: An array temporary was created
At line 1740 of file mp.f90
Fortran runtime warning: An array temporary was created
At line 1740 of file mp.f90
Fortran runtime warning: An array temporary was created
At line 1740 of file mp.f90
Fortran runtime warning: An array temporary was created
At line 1740 of file mp.f90
Fortran runtime warning: An array temporary was created
At line 1740 of file mp.f90
Fortran runtime warning: An array temporary was created
At line 1740 of file mp.f90
Fortran runtime warning: An array temporary was created
At line 1740 of file mp.f90
Fortran runtime warning: An array temporary was created
At line 1740 of file mp.f90
Fortran runtime warning: An array temporary was created
At line 1740 of file mp.f90
Fortran runtime warning: An array temporary was created

     ethr =  3.33E-08,  avg # of iterations = 28.2

     total cpu time spent up to now is        1.2 secs

     End of band structure calculation

          k = 0.0000 0.0000 0.0000 (   387 PWs)   bands (ev):

    -3.2081  20.6413  20.6413  20.6413  22.1461  22.1461  22.1461  24.4973
    27.4665  27.4665  30.3562  32.7007  32.7007  32.7007  41.7062

          k = 0.0000 0.0505 0.0000 (   383 PWs)   bands (ev):

    -3.1617  20.0993  20.0993  20.2845  22.0320  22.7565  22.7565  24.9469
    26.8497  27.5093  30.2867  32.7534  32.7534  33.4882  41.8981

          k = 0.0000 0.1010 0.0000 (   383 PWs)   bands (ev):

    -3.0224  19.2186  19.2186  19.5013  21.7160  23.8394  23.8394  25.3777
    26.0083  27.6380  30.5111  32.9137  32.9137  34.9857  42.4944

          k = 0.0000 0.1515 0.0000 (   371 PWs)   bands (ev):

    -2.7906  18.3467  18.3467  18.6089  21.2579  23.5951  25.0398  25.0398
    27.3649  27.8544  31.0484  33.1887  33.1887  36.5218  43.5410

          k = 0.0000 0.2020 0.0000 (   371 PWs)   bands (ev):

    -2.4667  17.5328  17.5328  17.7278  20.7198  21.7328  26.2936  26.2936
    28.1521  28.8946  31.7730  33.5907  33.5907  37.8975  45.0554

          k = 0.0000 0.2525 0.0000 (   371 PWs)   bands (ev):

    -2.0513  16.7894  16.7894  16.9014  19.8673  20.1556  27.5647  27.5647
    28.5318  30.5544  32.6185  34.1399  34.1399  39.0924  46.9762

          k = 0.0000 0.3030 0.0000 (   375 PWs)   bands (ev):

    -1.5453  16.1214  16.1214  16.1474  18.0431  19.5890  28.8154  28.8154
    28.9907  32.3267  33.5491  34.8637  34.8637  40.1576  49.1830

          k = 0.0000 0.3536 0.0000 (   375 PWs)   bands (ev):

    -0.9497  15.4744  15.5307  15.5307  16.2682  19.0535  29.5244  30.0061
    30.0061  34.2010  34.5466  35.7908  35.7908  41.1391  49.0936

          k = 0.0000 0.4041 0.0000 (   383 PWs)   bands (ev):

    -0.2658  14.5540  14.8867  15.0183  15.0183  18.5640  30.1257  31.1024
    31.1024  35.5985  36.1727  36.9370  36.9370  42.0476  47.3171

          k = 0.0000 0.4546 0.0000 (   387 PWs)   bands (ev):

     0.5047  12.9076  14.3868  14.5847  14.5847  18.1333  30.7824  32.0898
    32.0898  36.6994  38.2379  38.2832  38.2832  42.8540  45.6608

          k = 0.0000 0.5051 0.0000 (   387 PWs)   bands (ev):

     1.3594  11.3338  13.9765  14.2299  14.2299  17.7704  31.4764  32.9700
    32.9700  37.8374  39.7468  39.7468  40.3927  43.4862  44.1507

          k = 0.0000 0.5556 0.0000 (   383 PWs)   bands (ev):

     2.2941   9.8385  13.6567  13.9541  13.9541  17.4819  32.1727  33.7413
    33.7413  38.9998  41.0839  41.0839  42.6330  42.8190  43.8317

          k = 0.0000 0.6061 0.0000 (   392 PWs)   bands (ev):

     3.2991   8.4325  13.4276  13.7572  13.7572  17.2726  32.8094  34.3743
    34.3743  40.1592  41.7216  41.7216  41.7272  43.7781  44.9485

          k = 0.0000 0.6566 0.0000 (   388 PWs)   bands (ev):

     4.3357   7.1552  13.2901  13.6390  13.6390  17.1458  33.2840  34.8131
    34.8131  40.9799  41.2605  41.6622  41.6622  43.3197  47.0404

          k = 0.0000 0.7071 0.0000 (   388 PWs)   bands (ev):

     5.0334   6.3772  13.2443  13.5997  13.5997  17.1034  33.4650  34.9732
    34.9732  40.7080  41.5667  41.5667  41.9706  42.8129  48.5841

          k = 0.0442 0.7071 0.0442 (   388 PWs)   bands (ev):

     5.0986   6.4456  11.7927  13.6604  14.5763  17.7547  33.0973  34.4342
    34.5875  40.6023  41.1912  42.0455  42.2006  43.4484  47.8677

          k = 0.0884 0.7071 0.0884 (   383 PWs)   bands (ev):

     5.2940   6.6485  10.0604  13.8428  15.1928  19.3977  32.1911  33.2007
    33.6415  39.1013  42.2388  42.3829  43.2768  43.7402  47.3318

          k = 0.1326 0.7071 0.1326 (   385 PWs)   bands (ev):

     5.6200   6.9635   8.3809  14.1469  15.6798  21.4767  31.0473  31.7330
    32.4514  37.5464  41.7840  43.0707  43.3727  44.9147  47.7468

          k = 0.1768 0.7071 0.1768 (   391 PWs)   bands (ev):

     6.0766   6.6035   7.5941  14.5729  16.2206  23.7245  29.8492  30.2324
    31.2022  36.0390  40.6439  41.9125  44.4344  46.6754  48.1519

          k = 0.5303 0.5303 0.0000 (   391 PWs)   bands (ev):

     6.0766   6.6035   7.5941  14.5729  16.2206  23.7245  29.8492  30.2324
    31.2022  36.0390  40.6439  41.9125  44.4344  46.6754  48.1519

          k = 0.4950 0.4950 0.0000 (   387 PWs)   bands (ev):

     5.4271   6.5362   8.0229  15.0017  16.7266  25.5505  28.9123  29.0656
    30.2204  34.9183  39.6280  40.9160  45.2431  47.9752  48.3351

          k = 0.4596 0.4596 0.0000 (   385 PWs)   bands (ev):

     4.2788   7.0798   8.5792  15.5088  17.3050  27.2981  27.9511  28.0168
    29.2783  33.9375  38.6182  39.9754  46.0472  48.2155  48.9946

          k = 0.4243 0.4243 0.0000 (   387 PWs)   bands (ev):

     3.1995   7.7074   9.2239  16.0942  17.9568  26.9003  27.1758  28.3880
    28.7440  33.2439  37.6484  39.2019  46.8703  47.6793  48.7515

          k = 0.3889 0.3889 0.0000 (   387 PWs)   bands (ev):

     2.1966   8.4194   9.9494  16.7576  18.6800  25.9210  26.3965  27.5576
    29.4301  33.1170  36.7343  38.7926  46.6783  46.7244  47.7348

          k = 0.3536 0.3536 0.0000 (   379 PWs)   bands (ev):

     1.2736   9.2156  10.7512  17.4985  19.4713  25.0185  25.6841  26.7923
    29.2193  33.3616  35.8790  39.0891  44.3301  45.4580  48.6554

          k = 0.3182 0.3182 0.0000 (   391 PWs)   bands (ev):

     0.4330  10.0960  11.6246  18.3152  20.3247  24.1957  25.0407  26.0930
    28.6005  33.2960  35.0738  40.2778  41.9535  44.0110  47.6737

          k = 0.2828 0.2828 0.0000 (   391 PWs)   bands (ev):

    -0.3235  11.0603  12.5647  19.2046  21.2342  23.4555  24.4704  25.4633
    27.8771  32.8756  34.2999  39.6574  41.9196  42.6703  45.7998

          k = 0.2475 0.2475 0.0000 (   385 PWs)   bands (ev):

    -0.9944  12.1079  13.5649  20.1597  22.1894  22.7996  23.9799  24.9030
    27.1429  32.3002  33.5015  37.5293  40.8146  43.7790  44.4036

          k = 0.2121 0.2121 0.0000 (   385 PWs)   bands (ev):

    -1.5784  13.2375  14.6173  21.1578  22.2292  23.1753  23.5880  24.4123
    26.4242  31.6887  32.5440  35.7207  39.2799  41.7413  46.7745

          k = 0.1768 0.1768 0.0000 (   381 PWs)   bands (ev):

    -2.0744  14.4468  15.7115  21.7453  22.0897  23.3984  23.9899  24.1608
    25.7326  31.1052  31.2330  34.4386  37.7940  39.7496  45.7907

          k = 0.1414 0.1414 0.0000 (   379 PWs)   bands (ev):

    -2.4815  15.7310  16.8334  21.3485  22.4736  23.6309  23.8809  24.8011
    25.3671  29.5968  30.5983  33.6673  36.3966  37.8421  44.4321

          k = 0.1061 0.1061 0.0000 (   379 PWs)   bands (ev):

    -2.7989  17.0804  17.9632  21.0394  22.3868  23.3221  24.1925  24.9331
    26.1534  27.8680  30.2283  33.2012  35.1160  36.0578  43.2958

          k = 0.0707 0.0707 0.0000 (   379 PWs)   bands (ev):

    -3.0261  18.4707  19.0696  20.8184  22.2607  23.0217  23.4237  26.0648
    26.2407  26.8847  30.0834  32.9130  33.9853  34.4634  42.4330

          k = 0.0354 0.0354 0.0000 (   379 PWs)   bands (ev):

    -3.1626  19.8216  20.0798  20.6855  22.1755  22.6006  22.6319  24.9761
    27.0388  27.3316  30.2088  32.7525  33.0911  33.2199  41.8913

          k = 0.0000 0.0000 0.0000 (   387 PWs)   bands (ev):

    -3.2081  20.6413  20.6413  20.6413  22.1461  22.1461  22.1461  24.4973
    27.4665  27.4665  30.3562  32.7007  32.7007  32.7007  41.7062

          k = 0.0295 0.0295 0.0295 (   378 PWs)   bands (ev):

    -3.1607  19.6409  20.4480  20.4480  22.4137  22.4137  22.6044  25.0064
    27.1769  27.1769  30.1630  32.9647  33.0868  33.0868  41.8979

          k = 0.0589 0.0589 0.0589 (   375 PWs)   bands (ev):

    -3.0185  18.0193  20.0732  20.0732  22.8072  23.0038  23.0038  26.3304
    26.4904  26.4904  29.6824  33.6763  34.0638  34.0638  42.4478

          k = 0.0884 0.0884 0.0884 (   375 PWs)   bands (ev):

    -2.7819  16.3254  19.6971  19.6971  22.7515  23.6911  23.6911  25.7068
    25.7068  27.9364  29.0435  34.7491  35.3741  35.3741  43.2964

          k = 0.1179 0.1179 0.1179 (   380 PWs)   bands (ev):

    -2.4513  14.6458  19.3718  19.3718  22.6222  24.0689  24.0689  25.3120
    25.3120  28.3208  29.5722  36.1481  36.8782  36.8782  44.3769

          k = 0.1473 0.1473 0.1473 (   380 PWs)   bands (ev):

    -2.0273  13.0097  19.1140  19.1140  22.4899  23.5410  23.5410  25.9418
    25.9418  27.5625  31.1668  37.8376  38.5049  38.5049  45.6291

          k = 0.1768 0.1768 0.1768 (   380 PWs)   bands (ev):

    -1.5108  11.4312  18.9294  18.9294  22.3907  22.7905  22.7905  26.8035
    26.9275  26.9275  32.7097  39.7632  40.1904  40.1904  46.9917

          k = 0.2062 0.2062 0.2062 (   380 PWs)   bands (ev):

    -0.9028   9.9180  18.8210  18.8210  22.0610  22.0610  22.3453  26.0688
    28.0274  28.0274  34.2098  41.7866  41.7866  41.8536  47.0240

          k = 0.2357 0.2357 0.2357 (   389 PWs)   bands (ev):

    -0.2044   8.4755  18.7903  18.7903  21.3910  21.3910  22.3664  25.3761
    29.1920  29.1920  35.6708  42.6299  42.6299  44.0158  46.1935

          k = 0.2652 0.2652 0.2652 (   389 PWs)   bands (ev):

     0.5831   7.1075  18.8382  18.8382  20.7922  20.7922  22.4625  24.7398
    30.3828  30.3828  37.0758  41.8416  41.8416  46.0559  47.2077

          k = 0.2946 0.2946 0.2946 (   386 PWs)   bands (ev):

     1.4580   5.8170  18.9653  18.9653  20.2692  20.2692  22.6374  24.1699
    31.5282  31.5282  38.3600  40.5190  40.5190  46.9197  48.9888

          k = 0.3241 0.3241 0.3241 (   392 PWs)   bands (ev):

     2.4172   4.6082  19.1716  19.1716  19.8244  19.8244  22.8905  23.6763
    32.4598  32.4598  39.3627  39.4081  39.4081  46.3070  50.6806

          k = 0.3536 0.3536 0.3536 (   392 PWs)   bands (ev):

     3.3518   3.5903  19.4411  19.4411  19.4753  19.4753  23.1487  23.3373
    32.8511  32.8511  38.9509  38.9509  39.7710  45.9555  51.4726

          k = 0.3536 0.3889 0.3182 (   388 PWs)   bands (ev):

     3.3940   3.6347  18.3419  18.4093  20.1051  20.1936  23.7339  23.7425
    32.5429  32.7418  38.9054  39.0955  40.0297  46.2013  51.3779

          k = 0.3536 0.4243 0.2828 (   384 PWs)   bands (ev):

     3.5204   3.7679  16.9941  17.1934  20.4320  20.6494  24.7353  25.1365
    31.7722  32.4239  38.8259  39.3194  40.8498  46.8380  50.8236

          k = 0.3536 0.4596 0.2475 (   386 PWs)   bands (ev):

     3.7311   3.9887  15.6064  15.9303  20.6933  21.0022  26.0202  26.8811
    30.7862  31.9387  38.8167  39.5465  42.0270  47.5290  50.0210

          k = 0.3536 0.4950 0.2121 (   388 PWs)   bands (ev):

     4.0258   4.2957  14.2526  14.6791  20.9839  21.3598  27.3440  28.7938
    29.7433  31.3992  38.9465  39.8214  43.2790  47.5727  49.3021

          k = 0.3536 0.5303 0.1768 (   384 PWs)   bands (ev):

     4.4040   4.6860  12.9614  13.4691  21.3313  21.7614  28.3581  28.6610
    30.8656  31.1247  39.2380  40.1638  44.2790  46.8750  48.9438

          k = 0.3536 0.5657 0.1414 (   388 PWs)   bands (ev):

     4.8650   5.1548  11.7455  12.3190  21.7443  22.2149  27.6441  28.4687
    31.7011  32.9901  39.6918  40.5847  44.6151  45.9510  49.2694

          k = 0.3536 0.6010 0.1061 (   392 PWs)   bands (ev):

     5.4062   5.6927  10.6133  11.2458  22.2257  22.7117  26.6775  27.9316
    32.8536  35.1618  40.3093  41.0997  44.2983  45.0286  48.4092

          k = 0.3536 0.6364 0.0707 (   388 PWs)   bands (ev):

     6.0211   6.2771   9.5750  10.2765  22.7751  23.2212  25.7759  27.2659
    34.0112  37.2979  41.0937  41.7467  43.6927  44.2213  46.7690

          k = 0.3536 0.6718 0.0354 (   388 PWs)   bands (ev):

     6.6797   6.8369   8.6617   9.4849  23.3812  23.6633  24.9564  26.7019
    34.8693  39.1539  42.0192  42.6184  43.0389  43.6485  45.2343

          k = 0.3536 0.7071 0.0000 (   396 PWs)   bands (ev):

     7.1216   7.1216   8.1346   9.1227  23.8584  23.8584  24.4074  26.4622
    35.1908  40.0186  42.6703  42.6703  43.4627  43.4627  44.3320

          k = 0.2946 0.7071 0.0000 (   388 PWs)   bands (ev):

     6.4828   7.8090   7.8774   9.5565  21.8548  23.3936  25.9483  27.5046
    35.1767  40.0078  42.3622  42.7746  43.0539  44.1914  44.4007

          k = 0.2357 0.7071 0.0000 (   388 PWs)   bands (ev):

     5.9606   7.3270   8.7502  10.3593  19.9496  21.8182  28.1019  29.1488
    35.1353  40.0032  42.0857  42.2893  43.2705  44.5432  45.0349

          k = 0.1768 0.7071 0.0000 (   384 PWs)   bands (ev):

     5.5548   6.9194   9.7402  11.2863  18.1509  20.2552  30.2774  30.7689
    35.0807  40.0932  41.8624  41.8673  43.2959  44.5930  45.9880

          k = 0.1179 0.7071 0.0000 (   384 PWs)   bands (ev):

     5.2651   6.6200  10.8468  12.2646  16.4635  18.8134  32.1650  32.3811
    35.0257  40.3952  41.5002  41.6990  42.8919  44.2895  47.0449

          k = 0.0589 0.7071 0.0000 (   388 PWs)   bands (ev):

     5.0913   6.4381  12.0673  13.1640  14.8933  17.6330  33.1232  34.1661
    34.9870  40.9988  41.0619  41.6000  42.2338  43.5016  48.0150

          k = 0.0000 0.7071 0.0000 (   388 PWs)   bands (ev):

     5.0334   6.3772  13.2443  13.5997  13.5997  17.1034  33.4650  34.9732
    34.9732  40.7080  41.5667  41.5667  41.9706  42.8129  48.5841

     Writing output data file ./pwscf.save/

     init_run     :      0.33s CPU      0.33s WALL (       1 calls)
     electrons    :      0.65s CPU      0.67s WALL (       1 calls)

     Called by init_run:
     wfcinit      :      0.00s CPU      0.00s WALL (       1 calls)
     potinit      :      0.03s CPU      0.04s WALL (       1 calls)
     hinit0       :      0.27s CPU      0.27s WALL (       1 calls)

     Called by electrons:
     c_bands      :      0.65s CPU      0.67s WALL (       1 calls)
     v_of_rho     :      0.02s CPU      0.02s WALL (       1 calls)
     newd         :      0.02s CPU      0.02s WALL (       1 calls)

     Called by c_bands:
     init_us_2    :      0.00s CPU      0.00s WALL (       3 calls)
     cegterg      :      0.23s CPU      0.24s WALL (       3 calls)

     Called by *egterg:
     cdiaghg      :      0.01s CPU      0.02s WALL (      43 calls)
     h_psi        :      0.21s CPU      0.22s WALL (      46 calls)
     s_psi        :      0.00s CPU      0.00s WALL (      46 calls)
     g_psi        :      0.00s CPU      0.00s WALL (      40 calls)

     Called by h_psi:
     h_psi:calbec :      0.00s CPU      0.00s WALL (      46 calls)
     vloc_psi     :      0.20s CPU      0.21s WALL (      46 calls)
     add_vuspsi   :      0.00s CPU      0.00s WALL (      46 calls)

     General routines
     calbec       :      0.00s CPU      0.00s WALL (      46 calls)
     fft          :      0.01s CPU      0.01s WALL (      13 calls)
     ffts         :      0.00s CPU      0.00s WALL (       1 calls)
     fftw         :      0.17s CPU      0.18s WALL (    1120 calls)
     interpolate  :      0.00s CPU      0.00s WALL (       1 calls)
     davcio       :      0.00s CPU      0.00s WALL (       6 calls)

     Parallel routines

     PWSCF        :      1.26s CPU      1.76s WALL


   This run was terminated on:  11:47:32  29Jun2022            

=------------------------------------------------------------------------------=
   JOB DONE.
=------------------------------------------------------------------------------=
[macloud2:996634] 23 more processes have sent help message help-common-ofi.txt / package_rank failed
[macloud2:996634] Set MCA parameter "orte_base_help_aggregate" to 0 to see all help / error messages
[macloud2:996634] 23 more processes have sent help message help-mpi-btl-openib.txt / error in device init
