--------------------------------------------------------------------------
Open MPI's OFI driver detected multiple equidistant NICs from the current process,
but had insufficient information to ensure MPI processes fairly pick a NIC for use.
This may negatively impact performance. A more modern PMIx server is necessary to
resolve this issue.

Note: This message is displayed only when the OFI component's verbosity level is
562063536 or higher.
--------------------------------------------------------------------------
--------------------------------------------------------------------------
WARNING: There was an error initializing an OpenFabrics device.

  Local host:   macloud1
  Local device: mlx4_0
--------------------------------------------------------------------------

     Program MATDYN v.6.7GPU starts on 28Jun2022 at  1:28:23 

     This program is part of the open-source Quantum ESPRESSO suite
     for quantum simulation of materials; please cite
         "P. Giannozzi et al., J. Phys.:Condens. Matter 21 395502 (2009);
         "P. Giannozzi et al., J. Phys.:Condens. Matter 29 465901 (2017);
         "P. Giannozzi et al., J. Chem. Phys. 152 154105 (2020);
          URL http://www.quantum-espresso.org", 
     in publications or presentations arising from this work. More details at
     http://www.quantum-espresso.org/quote

     Parallel version (MPI & OpenMP), running on       1 processor cores
     Number of MPI processes:                 1
     Threads/MPI process:                     1

     MPI processes distributed on     1 nodes
 mass for atomic type   1 not given; uses mass from file ifc.dat                                                                                                                                                                                                                                                         
At line 1361 of file matdyn.f90
Fortran runtime warning: An array temporary was created
Norm of the difference between old and new effective charges:    0.00000000000000000000
At line 1550 of file matdyn.f90
Fortran runtime warning: An array temporary was created
At line 1550 of file matdyn.f90
Fortran runtime warning: An array temporary was created
At line 1604 of file matdyn.f90
Fortran runtime warning: An array temporary was created
At line 1604 of file matdyn.f90
Fortran runtime warning: An array temporary was created
Norm of the difference between old and new force-constants:   0.00060669981684353155
     Message from routine matdyn:
     Z* not found in file ifc.dat, TO-LO splitting at q=0 will be absent!
     Message from routine matdyn:
     Z* not found in file ifc.dat, TO-LO splitting at q=0 will be absent!

  Gamma lines for all modes [Rydberg] 

Norm of the difference between old and new effective charges:    0.00000000000000000000
Norm of the difference between old and new force-constants:   0.01110021276474264240
 Broadening   0.0000
       1
-0.000000000-0.000000000 0.000000000
       2
 0.000000105 0.000000036 0.000000311
       3
 0.000000385 0.000000133 0.000001192
       4
 0.000000748 0.000000270 0.000002506
       5
 0.000001088 0.000000424 0.000004071
       6
 0.000001324 0.000000587 0.000005708
       7
 0.000001431 0.000000768 0.000007277
       8
 0.000001439 0.000000995 0.000008690
       9
 0.000001294 0.000001407 0.000009908
      10
 0.000001677 0.000001397 0.000010920
      11
 0.000002128 0.000001440 0.000011727
      12
 0.000002598 0.000001534 0.000012339
      13
 0.000003015 0.000001648 0.000012763
      14
 0.000003303 0.000001739 0.000013012
      15
 0.000003406 0.000001774 0.000013093
      16
 0.000003571 0.000001763 0.000012951
      17
 0.000001723 0.000004063 0.000012524
      18
 0.000001650 0.000004863 0.000011815
      19
 0.000001537 0.000005924 0.000010840
      20
 0.000001537 0.000005924 0.000010840
      21
 0.000001423 0.000006898 0.000009896
      22
 0.000001295 0.000008847 0.000007892
      23
 0.000001165 0.000007726 0.000008816
      24
 0.000001043 0.000006586 0.000009550
      25
 0.000000936 0.000005474 0.000009982
      26
 0.000000842 0.000004427 0.000010015
      27
 0.000000757 0.000003475 0.000009591
      28
 0.000000670 0.000002635 0.000008705
      29
 0.000000572 0.000001916 0.000007413
      30
 0.000000460 0.000001317 0.000005834
      31
 0.000000335 0.000000836 0.000004136
      32
 0.000000210 0.000000467 0.000002519
      33
 0.000000101 0.000000207 0.000001185
      34
 0.000000026 0.000000052 0.000000307
      35
-0.000000000-0.000000000 0.000000000
      36
 0.000000013 0.000000013 0.000000312
      37
 0.000000060 0.000000060 0.000001219
      38
 0.000000154 0.000000154 0.000002632
      39
 0.000000302 0.000000302 0.000004415
      40
 0.000000486 0.000000486 0.000006403
      41
 0.000000662 0.000000662 0.000008423
      42
 0.000000780 0.000000780 0.000010317
      43
 0.000000803 0.000000803 0.000011960
      44
 0.000000733 0.000000733 0.000013272
      45
 0.000000610 0.000000610 0.000014213
      46
 0.000000497 0.000000497 0.000014775
      47
 0.000000452 0.000000452 0.000014961
      48
 0.000000498 0.000000665 0.000014816
      49
 0.000000626 0.000001275 0.000014387
      50
 0.000000816 0.000002197 0.000013698
      51
 0.000001044 0.000003310 0.000012788
      52
 0.000001293 0.000004478 0.000011715
      53
 0.000001559 0.000005574 0.000010554
      54
 0.000001846 0.000006494 0.000009405
      55
 0.000002139 0.000007166 0.000008399
      56
 0.000002370 0.000007546 0.000007715
      57
 0.000002413 0.000007554 0.000007614
      58
 0.000002442 0.000006234 0.000008974
      59
 0.000002534 0.000004984 0.000010305
      60
 0.000002725 0.000003831 0.000011463
      61
 0.000003102 0.000002716 0.000012352
      62
 0.000003406 0.000001939 0.000012906
      63
 0.000003406 0.000001774 0.000013093
Norm of the difference between old and new effective charges:    0.00000000000000000000
Norm of the difference between old and new force-constants:   0.01110021276474264240
 Broadening   0.0000
       1
-0.000000000-0.000000000 0.000000000
       2
 0.000000105 0.000000036 0.000000311
       3
 0.000000385 0.000000133 0.000001192
       4
 0.000000748 0.000000270 0.000002506
       5
 0.000001088 0.000000424 0.000004071
       6
 0.000001324 0.000000587 0.000005708
       7
 0.000001431 0.000000768 0.000007277
       8
 0.000001439 0.000000995 0.000008690
       9
 0.000001294 0.000001407 0.000009908
      10
 0.000001677 0.000001397 0.000010920
      11
 0.000002128 0.000001440 0.000011727
      12
 0.000002598 0.000001534 0.000012339
      13
 0.000003015 0.000001648 0.000012763
      14
 0.000003303 0.000001739 0.000013012
      15
 0.000003406 0.000001774 0.000013093
      16
 0.000003571 0.000001763 0.000012951
      17
 0.000001723 0.000004063 0.000012524
      18
 0.000001650 0.000004863 0.000011815
      19
 0.000001537 0.000005924 0.000010840
      20
 0.000001537 0.000005924 0.000010840
      21
 0.000001423 0.000006898 0.000009896
      22
 0.000001295 0.000008847 0.000007892
      23
 0.000001165 0.000007726 0.000008816
      24
 0.000001043 0.000006586 0.000009550
      25
 0.000000936 0.000005474 0.000009982
      26
 0.000000842 0.000004427 0.000010015
      27
 0.000000757 0.000003475 0.000009591
      28
 0.000000670 0.000002635 0.000008705
      29
 0.000000572 0.000001916 0.000007413
      30
 0.000000460 0.000001317 0.000005834
      31
 0.000000335 0.000000836 0.000004136
      32
 0.000000210 0.000000467 0.000002519
      33
 0.000000101 0.000000207 0.000001185
      34
 0.000000026 0.000000052 0.000000307
      35
-0.000000000-0.000000000 0.000000000
      36
 0.000000013 0.000000013 0.000000312
      37
 0.000000060 0.000000060 0.000001219
      38
 0.000000154 0.000000154 0.000002632
      39
 0.000000302 0.000000302 0.000004415
      40
 0.000000486 0.000000486 0.000006403
      41
 0.000000662 0.000000662 0.000008423
      42
 0.000000780 0.000000780 0.000010317
      43
 0.000000803 0.000000803 0.000011960
      44
 0.000000733 0.000000733 0.000013272
      45
 0.000000610 0.000000610 0.000014213
      46
 0.000000497 0.000000497 0.000014775
      47
 0.000000452 0.000000452 0.000014961
      48
 0.000000498 0.000000665 0.000014816
      49
 0.000000626 0.000001275 0.000014387
      50
 0.000000816 0.000002197 0.000013698
      51
 0.000001044 0.000003310 0.000012788
      52
 0.000001293 0.000004478 0.000011715
      53
 0.000001559 0.000005574 0.000010554
      54
 0.000001846 0.000006494 0.000009405
      55
 0.000002139 0.000007166 0.000008399
      56
 0.000002370 0.000007546 0.000007715
      57
 0.000002413 0.000007554 0.000007614
      58
 0.000002442 0.000006234 0.000008974
      59
 0.000002534 0.000004984 0.000010305
      60
 0.000002725 0.000003831 0.000011463
      61
 0.000003102 0.000002716 0.000012352
      62
 0.000003406 0.000001939 0.000012906
      63
 0.000003406 0.000001774 0.000013093
Norm of the difference between old and new effective charges:    0.00000000000000000000
Norm of the difference between old and new force-constants:   0.01110021276474264240
 Broadening   0.0000
       1
-0.000000000-0.000000000 0.000000000
       2
 0.000000105 0.000000036 0.000000311
       3
 0.000000385 0.000000133 0.000001192
       4
 0.000000748 0.000000270 0.000002506
       5
 0.000001088 0.000000424 0.000004071
       6
 0.000001324 0.000000587 0.000005708
       7
 0.000001431 0.000000768 0.000007277
       8
 0.000001439 0.000000995 0.000008690
       9
 0.000001294 0.000001407 0.000009908
      10
 0.000001677 0.000001397 0.000010920
      11
 0.000002128 0.000001440 0.000011727
      12
 0.000002598 0.000001534 0.000012339
      13
 0.000003015 0.000001648 0.000012763
      14
 0.000003303 0.000001739 0.000013012
      15
 0.000003406 0.000001774 0.000013093
      16
 0.000003571 0.000001763 0.000012951
      17
 0.000001723 0.000004063 0.000012524
      18
 0.000001650 0.000004863 0.000011815
      19
 0.000001537 0.000005924 0.000010840
      20
 0.000001537 0.000005924 0.000010840
      21
 0.000001423 0.000006898 0.000009896
      22
 0.000001295 0.000008847 0.000007892
      23
 0.000001165 0.000007726 0.000008816
      24
 0.000001043 0.000006586 0.000009550
      25
 0.000000936 0.000005474 0.000009982
      26
 0.000000842 0.000004427 0.000010015
      27
 0.000000757 0.000003475 0.000009591
      28
 0.000000670 0.000002635 0.000008705
      29
 0.000000572 0.000001916 0.000007413
      30
 0.000000460 0.000001317 0.000005834
      31
 0.000000335 0.000000836 0.000004136
      32
 0.000000210 0.000000467 0.000002519
      33
 0.000000101 0.000000207 0.000001185
      34
 0.000000026 0.000000052 0.000000307
      35
-0.000000000-0.000000000 0.000000000
      36
 0.000000013 0.000000013 0.000000312
      37
 0.000000060 0.000000060 0.000001219
      38
 0.000000154 0.000000154 0.000002632
      39
 0.000000302 0.000000302 0.000004415
      40
 0.000000486 0.000000486 0.000006403
      41
 0.000000662 0.000000662 0.000008423
      42
 0.000000780 0.000000780 0.000010317
      43
 0.000000803 0.000000803 0.000011960
      44
 0.000000733 0.000000733 0.000013272
      45
 0.000000610 0.000000610 0.000014213
      46
 0.000000497 0.000000497 0.000014775
      47
 0.000000452 0.000000452 0.000014961
      48
 0.000000498 0.000000665 0.000014816
      49
 0.000000626 0.000001275 0.000014387
      50
 0.000000816 0.000002197 0.000013698
      51
 0.000001044 0.000003310 0.000012788
      52
 0.000001293 0.000004478 0.000011715
      53
 0.000001559 0.000005574 0.000010554
      54
 0.000001846 0.000006494 0.000009405
      55
 0.000002139 0.000007166 0.000008399
      56
 0.000002370 0.000007546 0.000007715
      57
 0.000002413 0.000007554 0.000007614
      58
 0.000002442 0.000006234 0.000008974
      59
 0.000002534 0.000004984 0.000010305
      60
 0.000002725 0.000003831 0.000011463
      61
 0.000003102 0.000002716 0.000012352
      62
 0.000003406 0.000001939 0.000012906
      63
 0.000003406 0.000001774 0.000013093
Norm of the difference between old and new effective charges:    0.00000000000000000000
Norm of the difference between old and new force-constants:   0.01110021276474264240
 Broadening   0.0000
       1
-0.000000000-0.000000000 0.000000000
       2
 0.000000105 0.000000036 0.000000311
       3
 0.000000385 0.000000133 0.000001192
       4
 0.000000748 0.000000270 0.000002506
       5
 0.000001088 0.000000424 0.000004071
       6
 0.000001324 0.000000587 0.000005708
       7
 0.000001431 0.000000768 0.000007277
       8
 0.000001439 0.000000995 0.000008690
       9
 0.000001294 0.000001407 0.000009908
      10
 0.000001677 0.000001397 0.000010920
      11
 0.000002128 0.000001440 0.000011727
      12
 0.000002598 0.000001534 0.000012339
      13
 0.000003015 0.000001648 0.000012763
      14
 0.000003303 0.000001739 0.000013012
      15
 0.000003406 0.000001774 0.000013093
      16
 0.000003571 0.000001763 0.000012951
      17
 0.000001723 0.000004063 0.000012524
      18
 0.000001650 0.000004863 0.000011815
      19
 0.000001537 0.000005924 0.000010840
      20
 0.000001537 0.000005924 0.000010840
      21
 0.000001423 0.000006898 0.000009896
      22
 0.000001295 0.000008847 0.000007892
      23
 0.000001165 0.000007726 0.000008816
      24
 0.000001043 0.000006586 0.000009550
      25
 0.000000936 0.000005474 0.000009982
      26
 0.000000842 0.000004427 0.000010015
      27
 0.000000757 0.000003475 0.000009591
      28
 0.000000670 0.000002635 0.000008705
      29
 0.000000572 0.000001916 0.000007413
      30
 0.000000460 0.000001317 0.000005834
      31
 0.000000335 0.000000836 0.000004136
      32
 0.000000210 0.000000467 0.000002519
      33
 0.000000101 0.000000207 0.000001185
      34
 0.000000026 0.000000052 0.000000307
      35
-0.000000000-0.000000000 0.000000000
      36
 0.000000013 0.000000013 0.000000312
      37
 0.000000060 0.000000060 0.000001219
      38
 0.000000154 0.000000154 0.000002632
      39
 0.000000302 0.000000302 0.000004415
      40
 0.000000486 0.000000486 0.000006403
      41
 0.000000662 0.000000662 0.000008423
      42
 0.000000780 0.000000780 0.000010317
      43
 0.000000803 0.000000803 0.000011960
      44
 0.000000733 0.000000733 0.000013272
      45
 0.000000610 0.000000610 0.000014213
      46
 0.000000497 0.000000497 0.000014775
      47
 0.000000452 0.000000452 0.000014961
      48
 0.000000498 0.000000665 0.000014816
      49
 0.000000626 0.000001275 0.000014387
      50
 0.000000816 0.000002197 0.000013698
      51
 0.000001044 0.000003310 0.000012788
      52
 0.000001293 0.000004478 0.000011715
      53
 0.000001559 0.000005574 0.000010554
      54
 0.000001846 0.000006494 0.000009405
      55
 0.000002139 0.000007166 0.000008399
      56
 0.000002370 0.000007546 0.000007715
      57
 0.000002413 0.000007554 0.000007614
      58
 0.000002442 0.000006234 0.000008974
      59
 0.000002534 0.000004984 0.000010305
      60
 0.000002725 0.000003831 0.000011463
      61
 0.000003102 0.000002716 0.000012352
      62
 0.000003406 0.000001939 0.000012906
      63
 0.000003406 0.000001774 0.000013093
Norm of the difference between old and new effective charges:    0.00000000000000000000
Norm of the difference between old and new force-constants:   0.01110021276474264240
 Broadening   0.0000
       1
-0.000000000-0.000000000 0.000000000
       2
 0.000000105 0.000000036 0.000000311
       3
 0.000000385 0.000000133 0.000001192
       4
 0.000000748 0.000000270 0.000002506
       5
 0.000001088 0.000000424 0.000004071
       6
 0.000001324 0.000000587 0.000005708
       7
 0.000001431 0.000000768 0.000007277
       8
 0.000001439 0.000000995 0.000008690
       9
 0.000001294 0.000001407 0.000009908
      10
 0.000001677 0.000001397 0.000010920
      11
 0.000002128 0.000001440 0.000011727
      12
 0.000002598 0.000001534 0.000012339
      13
 0.000003015 0.000001648 0.000012763
      14
 0.000003303 0.000001739 0.000013012
      15
 0.000003406 0.000001774 0.000013093
      16
 0.000003571 0.000001763 0.000012951
      17
 0.000001723 0.000004063 0.000012524
      18
 0.000001650 0.000004863 0.000011815
      19
 0.000001537 0.000005924 0.000010840
      20
 0.000001537 0.000005924 0.000010840
      21
 0.000001423 0.000006898 0.000009896
      22
 0.000001295 0.000008847 0.000007892
      23
 0.000001165 0.000007726 0.000008816
      24
 0.000001043 0.000006586 0.000009550
      25
 0.000000936 0.000005474 0.000009982
      26
 0.000000842 0.000004427 0.000010015
      27
 0.000000757 0.000003475 0.000009591
      28
 0.000000670 0.000002635 0.000008705
      29
 0.000000572 0.000001916 0.000007413
      30
 0.000000460 0.000001317 0.000005834
      31
 0.000000335 0.000000836 0.000004136
      32
 0.000000210 0.000000467 0.000002519
      33
 0.000000101 0.000000207 0.000001185
      34
 0.000000026 0.000000052 0.000000307
      35
-0.000000000-0.000000000 0.000000000
      36
 0.000000013 0.000000013 0.000000312
      37
 0.000000060 0.000000060 0.000001219
      38
 0.000000154 0.000000154 0.000002632
      39
 0.000000302 0.000000302 0.000004415
      40
 0.000000486 0.000000486 0.000006403
      41
 0.000000662 0.000000662 0.000008423
      42
 0.000000780 0.000000780 0.000010317
      43
 0.000000803 0.000000803 0.000011960
      44
 0.000000733 0.000000733 0.000013272
      45
 0.000000610 0.000000610 0.000014213
      46
 0.000000497 0.000000497 0.000014775
      47
 0.000000452 0.000000452 0.000014961
      48
 0.000000498 0.000000665 0.000014816
      49
 0.000000626 0.000001275 0.000014387
      50
 0.000000816 0.000002197 0.000013698
      51
 0.000001044 0.000003310 0.000012788
      52
 0.000001293 0.000004478 0.000011715
      53
 0.000001559 0.000005574 0.000010554
      54
 0.000001846 0.000006494 0.000009405
      55
 0.000002139 0.000007166 0.000008399
      56
 0.000002370 0.000007546 0.000007715
      57
 0.000002413 0.000007554 0.000007614
      58
 0.000002442 0.000006234 0.000008974
      59
 0.000002534 0.000004984 0.000010305
      60
 0.000002725 0.000003831 0.000011463
      61
 0.000003102 0.000002716 0.000012352
      62
 0.000003406 0.000001939 0.000012906
      63
 0.000003406 0.000001774 0.000013093
Norm of the difference between old and new effective charges:    0.00000000000000000000
Norm of the difference between old and new force-constants:   0.01110021276474264240
 Broadening   0.0000
       1
-0.000000000-0.000000000 0.000000000
       2
 0.000000105 0.000000036 0.000000311
       3
 0.000000385 0.000000133 0.000001192
       4
 0.000000748 0.000000270 0.000002506
       5
 0.000001088 0.000000424 0.000004071
       6
 0.000001324 0.000000587 0.000005708
       7
 0.000001431 0.000000768 0.000007277
       8
 0.000001439 0.000000995 0.000008690
       9
 0.000001294 0.000001407 0.000009908
      10
 0.000001677 0.000001397 0.000010920
      11
 0.000002128 0.000001440 0.000011727
      12
 0.000002598 0.000001534 0.000012339
      13
 0.000003015 0.000001648 0.000012763
      14
 0.000003303 0.000001739 0.000013012
      15
 0.000003406 0.000001774 0.000013093
      16
 0.000003571 0.000001763 0.000012951
      17
 0.000001723 0.000004063 0.000012524
      18
 0.000001650 0.000004863 0.000011815
      19
 0.000001537 0.000005924 0.000010840
      20
 0.000001537 0.000005924 0.000010840
      21
 0.000001423 0.000006898 0.000009896
      22
 0.000001295 0.000008847 0.000007892
      23
 0.000001165 0.000007726 0.000008816
      24
 0.000001043 0.000006586 0.000009550
      25
 0.000000936 0.000005474 0.000009982
      26
 0.000000842 0.000004427 0.000010015
      27
 0.000000757 0.000003475 0.000009591
      28
 0.000000670 0.000002635 0.000008705
      29
 0.000000572 0.000001916 0.000007413
      30
 0.000000460 0.000001317 0.000005834
      31
 0.000000335 0.000000836 0.000004136
      32
 0.000000210 0.000000467 0.000002519
      33
 0.000000101 0.000000207 0.000001185
      34
 0.000000026 0.000000052 0.000000307
      35
-0.000000000-0.000000000 0.000000000
      36
 0.000000013 0.000000013 0.000000312
      37
 0.000000060 0.000000060 0.000001219
      38
 0.000000154 0.000000154 0.000002632
      39
 0.000000302 0.000000302 0.000004415
      40
 0.000000486 0.000000486 0.000006403
      41
 0.000000662 0.000000662 0.000008423
      42
 0.000000780 0.000000780 0.000010317
      43
 0.000000803 0.000000803 0.000011960
      44
 0.000000733 0.000000733 0.000013272
      45
 0.000000610 0.000000610 0.000014213
      46
 0.000000497 0.000000497 0.000014775
      47
 0.000000452 0.000000452 0.000014961
      48
 0.000000498 0.000000665 0.000014816
      49
 0.000000626 0.000001275 0.000014387
      50
 0.000000816 0.000002197 0.000013698
      51
 0.000001044 0.000003310 0.000012788
      52
 0.000001293 0.000004478 0.000011715
      53
 0.000001559 0.000005574 0.000010554
      54
 0.000001846 0.000006494 0.000009405
      55
 0.000002139 0.000007166 0.000008399
      56
 0.000002370 0.000007546 0.000007715
      57
 0.000002413 0.000007554 0.000007614
      58
 0.000002442 0.000006234 0.000008974
      59
 0.000002534 0.000004984 0.000010305
      60
 0.000002725 0.000003831 0.000011463
      61
 0.000003102 0.000002716 0.000012352
      62
 0.000003406 0.000001939 0.000012906
      63
 0.000003406 0.000001774 0.000013093
Norm of the difference between old and new effective charges:    0.00000000000000000000
Norm of the difference between old and new force-constants:   0.01110021276474264240
 Broadening   0.0000
       1
-0.000000000-0.000000000 0.000000000
       2
 0.000000105 0.000000036 0.000000311
       3
 0.000000385 0.000000133 0.000001192
       4
 0.000000748 0.000000270 0.000002506
       5
 0.000001088 0.000000424 0.000004071
       6
 0.000001324 0.000000587 0.000005708
       7
 0.000001431 0.000000768 0.000007277
       8
 0.000001439 0.000000995 0.000008690
       9
 0.000001294 0.000001407 0.000009908
      10
 0.000001677 0.000001397 0.000010920
      11
 0.000002128 0.000001440 0.000011727
      12
 0.000002598 0.000001534 0.000012339
      13
 0.000003015 0.000001648 0.000012763
      14
 0.000003303 0.000001739 0.000013012
      15
 0.000003406 0.000001774 0.000013093
      16
 0.000003571 0.000001763 0.000012951
      17
 0.000001723 0.000004063 0.000012524
      18
 0.000001650 0.000004863 0.000011815
      19
 0.000001537 0.000005924 0.000010840
      20
 0.000001537 0.000005924 0.000010840
      21
 0.000001423 0.000006898 0.000009896
      22
 0.000001295 0.000008847 0.000007892
      23
 0.000001165 0.000007726 0.000008816
      24
 0.000001043 0.000006586 0.000009550
      25
 0.000000936 0.000005474 0.000009982
      26
 0.000000842 0.000004427 0.000010015
      27
 0.000000757 0.000003475 0.000009591
      28
 0.000000670 0.000002635 0.000008705
      29
 0.000000572 0.000001916 0.000007413
      30
 0.000000460 0.000001317 0.000005834
      31
 0.000000335 0.000000836 0.000004136
      32
 0.000000210 0.000000467 0.000002519
      33
 0.000000101 0.000000207 0.000001185
      34
 0.000000026 0.000000052 0.000000307
      35
-0.000000000-0.000000000 0.000000000
      36
 0.000000013 0.000000013 0.000000312
      37
 0.000000060 0.000000060 0.000001219
      38
 0.000000154 0.000000154 0.000002632
      39
 0.000000302 0.000000302 0.000004415
      40
 0.000000486 0.000000486 0.000006403
      41
 0.000000662 0.000000662 0.000008423
      42
 0.000000780 0.000000780 0.000010317
      43
 0.000000803 0.000000803 0.000011960
      44
 0.000000733 0.000000733 0.000013272
      45
 0.000000610 0.000000610 0.000014213
      46
 0.000000497 0.000000497 0.000014775
      47
 0.000000452 0.000000452 0.000014961
      48
 0.000000498 0.000000665 0.000014816
      49
 0.000000626 0.000001275 0.000014387
      50
 0.000000816 0.000002197 0.000013698
      51
 0.000001044 0.000003310 0.000012788
      52
 0.000001293 0.000004478 0.000011715
      53
 0.000001559 0.000005574 0.000010554
      54
 0.000001846 0.000006494 0.000009405
      55
 0.000002139 0.000007166 0.000008399
      56
 0.000002370 0.000007546 0.000007715
      57
 0.000002413 0.000007554 0.000007614
      58
 0.000002442 0.000006234 0.000008974
      59
 0.000002534 0.000004984 0.000010305
      60
 0.000002725 0.000003831 0.000011463
      61
 0.000003102 0.000002716 0.000012352
      62
 0.000003406 0.000001939 0.000012906
      63
 0.000003406 0.000001774 0.000013093
Norm of the difference between old and new effective charges:    0.00000000000000000000
Norm of the difference between old and new force-constants:   0.01110021276474264240
 Broadening   0.0000
       1
-0.000000000-0.000000000 0.000000000
       2
 0.000000105 0.000000036 0.000000311
       3
 0.000000385 0.000000133 0.000001192
       4
 0.000000748 0.000000270 0.000002506
       5
 0.000001088 0.000000424 0.000004071
       6
 0.000001324 0.000000587 0.000005708
       7
 0.000001431 0.000000768 0.000007277
       8
 0.000001439 0.000000995 0.000008690
       9
 0.000001294 0.000001407 0.000009908
      10
 0.000001677 0.000001397 0.000010920
      11
 0.000002128 0.000001440 0.000011727
      12
 0.000002598 0.000001534 0.000012339
      13
 0.000003015 0.000001648 0.000012763
      14
 0.000003303 0.000001739 0.000013012
      15
 0.000003406 0.000001774 0.000013093
      16
 0.000003571 0.000001763 0.000012951
      17
 0.000001723 0.000004063 0.000012524
      18
 0.000001650 0.000004863 0.000011815
      19
 0.000001537 0.000005924 0.000010840
      20
 0.000001537 0.000005924 0.000010840
      21
 0.000001423 0.000006898 0.000009896
      22
 0.000001295 0.000008847 0.000007892
      23
 0.000001165 0.000007726 0.000008816
      24
 0.000001043 0.000006586 0.000009550
      25
 0.000000936 0.000005474 0.000009982
      26
 0.000000842 0.000004427 0.000010015
      27
 0.000000757 0.000003475 0.000009591
      28
 0.000000670 0.000002635 0.000008705
      29
 0.000000572 0.000001916 0.000007413
      30
 0.000000460 0.000001317 0.000005834
      31
 0.000000335 0.000000836 0.000004136
      32
 0.000000210 0.000000467 0.000002519
      33
 0.000000101 0.000000207 0.000001185
      34
 0.000000026 0.000000052 0.000000307
      35
-0.000000000-0.000000000 0.000000000
      36
 0.000000013 0.000000013 0.000000312
      37
 0.000000060 0.000000060 0.000001219
      38
 0.000000154 0.000000154 0.000002632
      39
 0.000000302 0.000000302 0.000004415
      40
 0.000000486 0.000000486 0.000006403
      41
 0.000000662 0.000000662 0.000008423
      42
 0.000000780 0.000000780 0.000010317
      43
 0.000000803 0.000000803 0.000011960
      44
 0.000000733 0.000000733 0.000013272
      45
 0.000000610 0.000000610 0.000014213
      46
 0.000000497 0.000000497 0.000014775
      47
 0.000000452 0.000000452 0.000014961
      48
 0.000000498 0.000000665 0.000014816
      49
 0.000000626 0.000001275 0.000014387
      50
 0.000000816 0.000002197 0.000013698
      51
 0.000001044 0.000003310 0.000012788
      52
 0.000001293 0.000004478 0.000011715
      53
 0.000001559 0.000005574 0.000010554
      54
 0.000001846 0.000006494 0.000009405
      55
 0.000002139 0.000007166 0.000008399
      56
 0.000002370 0.000007546 0.000007715
      57
 0.000002413 0.000007554 0.000007614
      58
 0.000002442 0.000006234 0.000008974
      59
 0.000002534 0.000004984 0.000010305
      60
 0.000002725 0.000003831 0.000011463
      61
 0.000003102 0.000002716 0.000012352
      62
 0.000003406 0.000001939 0.000012906
      63
 0.000003406 0.000001774 0.000013093
Norm of the difference between old and new effective charges:    0.00000000000000000000
Norm of the difference between old and new force-constants:   0.01110021276474264240
 Broadening   0.0000
       1
-0.000000000-0.000000000 0.000000000
       2
 0.000000105 0.000000036 0.000000311
       3
 0.000000385 0.000000133 0.000001192
       4
 0.000000748 0.000000270 0.000002506
       5
 0.000001088 0.000000424 0.000004071
       6
 0.000001324 0.000000587 0.000005708
       7
 0.000001431 0.000000768 0.000007277
       8
 0.000001439 0.000000995 0.000008690
       9
 0.000001294 0.000001407 0.000009908
      10
 0.000001677 0.000001397 0.000010920
      11
 0.000002128 0.000001440 0.000011727
      12
 0.000002598 0.000001534 0.000012339
      13
 0.000003015 0.000001648 0.000012763
      14
 0.000003303 0.000001739 0.000013012
      15
 0.000003406 0.000001774 0.000013093
      16
 0.000003571 0.000001763 0.000012951
      17
 0.000001723 0.000004063 0.000012524
      18
 0.000001650 0.000004863 0.000011815
      19
 0.000001537 0.000005924 0.000010840
      20
 0.000001537 0.000005924 0.000010840
      21
 0.000001423 0.000006898 0.000009896
      22
 0.000001295 0.000008847 0.000007892
      23
 0.000001165 0.000007726 0.000008816
      24
 0.000001043 0.000006586 0.000009550
      25
 0.000000936 0.000005474 0.000009982
      26
 0.000000842 0.000004427 0.000010015
      27
 0.000000757 0.000003475 0.000009591
      28
 0.000000670 0.000002635 0.000008705
      29
 0.000000572 0.000001916 0.000007413
      30
 0.000000460 0.000001317 0.000005834
      31
 0.000000335 0.000000836 0.000004136
      32
 0.000000210 0.000000467 0.000002519
      33
 0.000000101 0.000000207 0.000001185
      34
 0.000000026 0.000000052 0.000000307
      35
-0.000000000-0.000000000 0.000000000
      36
 0.000000013 0.000000013 0.000000312
      37
 0.000000060 0.000000060 0.000001219
      38
 0.000000154 0.000000154 0.000002632
      39
 0.000000302 0.000000302 0.000004415
      40
 0.000000486 0.000000486 0.000006403
      41
 0.000000662 0.000000662 0.000008423
      42
 0.000000780 0.000000780 0.000010317
      43
 0.000000803 0.000000803 0.000011960
      44
 0.000000733 0.000000733 0.000013272
      45
 0.000000610 0.000000610 0.000014213
      46
 0.000000497 0.000000497 0.000014775
      47
 0.000000452 0.000000452 0.000014961
      48
 0.000000498 0.000000665 0.000014816
      49
 0.000000626 0.000001275 0.000014387
      50
 0.000000816 0.000002197 0.000013698
      51
 0.000001044 0.000003310 0.000012788
      52
 0.000001293 0.000004478 0.000011715
      53
 0.000001559 0.000005574 0.000010554
      54
 0.000001846 0.000006494 0.000009405
      55
 0.000002139 0.000007166 0.000008399
      56
 0.000002370 0.000007546 0.000007715
      57
 0.000002413 0.000007554 0.000007614
      58
 0.000002442 0.000006234 0.000008974
      59
 0.000002534 0.000004984 0.000010305
      60
 0.000002725 0.000003831 0.000011463
      61
 0.000003102 0.000002716 0.000012352
      62
 0.000003406 0.000001939 0.000012906
      63
 0.000003406 0.000001774 0.000013093
Norm of the difference between old and new effective charges:    0.00000000000000000000
Norm of the difference between old and new force-constants:   0.01110021276474264240
 Broadening   0.0000
       1
-0.000000000-0.000000000 0.000000000
       2
 0.000000105 0.000000036 0.000000311
       3
 0.000000385 0.000000133 0.000001192
       4
 0.000000748 0.000000270 0.000002506
       5
 0.000001088 0.000000424 0.000004071
       6
 0.000001324 0.000000587 0.000005708
       7
 0.000001431 0.000000768 0.000007277
       8
 0.000001439 0.000000995 0.000008690
       9
 0.000001294 0.000001407 0.000009908
      10
 0.000001677 0.000001397 0.000010920
      11
 0.000002128 0.000001440 0.000011727
      12
 0.000002598 0.000001534 0.000012339
      13
 0.000003015 0.000001648 0.000012763
      14
 0.000003303 0.000001739 0.000013012
      15
 0.000003406 0.000001774 0.000013093
      16
 0.000003571 0.000001763 0.000012951
      17
 0.000001723 0.000004063 0.000012524
      18
 0.000001650 0.000004863 0.000011815
      19
 0.000001537 0.000005924 0.000010840
      20
 0.000001537 0.000005924 0.000010840
      21
 0.000001423 0.000006898 0.000009896
      22
 0.000001295 0.000008847 0.000007892
      23
 0.000001165 0.000007726 0.000008816
      24
 0.000001043 0.000006586 0.000009550
      25
 0.000000936 0.000005474 0.000009982
      26
 0.000000842 0.000004427 0.000010015
      27
 0.000000757 0.000003475 0.000009591
      28
 0.000000670 0.000002635 0.000008705
      29
 0.000000572 0.000001916 0.000007413
      30
 0.000000460 0.000001317 0.000005834
      31
 0.000000335 0.000000836 0.000004136
      32
 0.000000210 0.000000467 0.000002519
      33
 0.000000101 0.000000207 0.000001185
      34
 0.000000026 0.000000052 0.000000307
      35
-0.000000000-0.000000000 0.000000000
      36
 0.000000013 0.000000013 0.000000312
      37
 0.000000060 0.000000060 0.000001219
      38
 0.000000154 0.000000154 0.000002632
      39
 0.000000302 0.000000302 0.000004415
      40
 0.000000486 0.000000486 0.000006403
      41
 0.000000662 0.000000662 0.000008423
      42
 0.000000780 0.000000780 0.000010317
      43
 0.000000803 0.000000803 0.000011960
      44
 0.000000733 0.000000733 0.000013272
      45
 0.000000610 0.000000610 0.000014213
      46
 0.000000497 0.000000497 0.000014775
      47
 0.000000452 0.000000452 0.000014961
      48
 0.000000498 0.000000665 0.000014816
      49
 0.000000626 0.000001275 0.000014387
      50
 0.000000816 0.000002197 0.000013698
      51
 0.000001044 0.000003310 0.000012788
      52
 0.000001293 0.000004478 0.000011715
      53
 0.000001559 0.000005574 0.000010554
      54
 0.000001846 0.000006494 0.000009405
      55
 0.000002139 0.000007166 0.000008399
      56
 0.000002370 0.000007546 0.000007715
      57
 0.000002413 0.000007554 0.000007614
      58
 0.000002442 0.000006234 0.000008974
      59
 0.000002534 0.000004984 0.000010305
      60
 0.000002725 0.000003831 0.000011463
      61
 0.000003102 0.000002716 0.000012352
      62
 0.000003406 0.000001939 0.000012906
      63
 0.000003406 0.000001774 0.000013093

     MATDYN       :      0.06s CPU      0.19s WALL


   This run was terminated on:   1:28:24  28Jun2022            

=------------------------------------------------------------------------------=
   JOB DONE.
=------------------------------------------------------------------------------=
