
     Program PHONON v.7.4.1 starts on 13Mar2026 at  2:39:11 

     This program is part of the open-source Quantum ESPRESSO suite
     for quantum simulation of materials; please cite
         "P. Giannozzi et al., J. Phys.:Condens. Matter 21 395502 (2009);
         "P. Giannozzi et al., J. Phys.:Condens. Matter 29 465901 (2017);
         "P. Giannozzi et al., J. Chem. Phys. 152 154105 (2020);
          URL http://www.quantum-espresso.org", 
     in publications or presentations arising from this work. More details at
     http://www.quantum-espresso.org/quote

     Parallel version (MPI & OpenMP), running on      64 processor cores
     Number of MPI processes:                64
     Threads/MPI process:                     1

     MPI processes distributed on     1 nodes
     225694 MiB available memory on the printing compute node when the environment starts
 
     Reading input from elph.in

     Reading xml data from directory:

     ./pwscf.save/
 
     K-points division:     npool     =      64
     Subspace diagonalization in iterative solution of the eigenvalue problem:
     a serial algorithm will be used


     IMPORTANT: XC functional enforced from input :
     Exchange-correlation= PBE
                           (   1   4   3   4   0   0   0)
     Any further DFT definition will be discarded
     Please, verify this is what you really want

 
     G-vector sticks info
     --------------------
     sticks:   dense  smooth     PW     G-vecs:    dense   smooth      PW
     Sum         559     283     91                 8801     3119     609
 
     Using Slab Decomposition
 

     Check: negative core charge=   -0.000003
     Message from routine divide_et_impera:
     suboptimal parallelization: some nodes have no k-points
     Reading collected, re-writing distributed wavefunctions in ./


     Dynamical matrices for ( 4, 4, 4)  uniform grid of q-points
     With a half shift
     (  10 q-points):
       N         xq(1)         xq(2)         xq(3) 
       1   0.088388348   0.088388348   0.088388348
       2   0.265165043   0.265165043  -0.088388348
       3  -0.265165043  -0.265165043   0.441941738
       4  -0.088388348  -0.088388348   0.265165043
       5   0.441941738   0.088388348   0.088388348
       6  -0.088388348  -0.441941738   0.618718434
       7   0.088388348  -0.265165043   0.441941738
       8  -0.618718434   0.088388348   0.088388348
       9   0.265165043   0.265165043   0.265165043
      10  -0.265165043  -0.265165043   0.795495129
     Because shifted q grid is used, q2r will not work !

     Saving dvscf to file. Distribute only q points, not irreducible representations.

     Calculation of q =    0.0883883   0.0883883   0.0883883
     [opt_tetra]  Optimized tetrahedron method is used.
 
     G-vector sticks info
     --------------------
     sticks:   dense  smooth     PW     G-vecs:    dense   smooth      PW
     Sum         559     283    109                 8801     3119     701
 
     Using Slab Decomposition
 

     Title: 
     Electron-phonon                                                            


     bravais-lattice index     =            0
     lattice parameter (alat)  =       5.3877  a.u.
     unit-cell volume          =     110.5871 (a.u.)^3
     number of atoms/cell      =            1
     number of atomic types    =            1
     number of electrons       =         3.00
     number of Kohn-Sham states=            6
     kinetic-energy cutoff     =      35.0000  Ry
     charge density cutoff     =     280.0000  Ry
     Exchange-correlation= PBE
                           (   1   4   3   4   0   0   0)

     celldm(1)=   5.387739  celldm(2)=   0.000000  celldm(3)=   0.000000
     celldm(4)=   0.000000  celldm(5)=   0.000000  celldm(6)=   0.000000

     crystal axes: (cart. coord. in units of alat)
               a(1) = (   0.000000   0.707107   0.707107 )  
               a(2) = (   0.707107   0.000000   0.707107 )  
               a(3) = (   0.707107   0.707107   0.000000 )  

     reciprocal axes: (cart. coord. in units 2 pi/alat)
               b(1) = ( -0.707107  0.707107  0.707107 )  
               b(2) = (  0.707107 -0.707107  0.707107 )  
               b(3) = (  0.707107  0.707107 -0.707107 )  


     PseudoPot. # 1 for Al read from file:
     ./Al.pbe-n-rrkjus_psl.0.1.UPF
     MD5 check sum: 6479f6627750700cef6db36d98bbe09a
     Pseudo is Ultrasoft + core correction, Zval =  3.0
     Generated using "atomic" code by A. Dal Corso  v.5.0.99 svn rev. 10869
     Using radial grid of 1135 points,  4 beta functions with: 
                l(1) =   0
                l(2) =   0
                l(3) =   1
                l(4) =   1
     Q(r) pseudized with 0 coefficients 


     atomic species   valence    mass     pseudopotential
     Al                3.00    26.98154     Al( 1.00)

     48 Sym. Ops., with inversion, found



   Cartesian axes

     site n.     atom                  positions (alat units)
         1        Al     tau(   1) = (   0.0000000   0.0000000   0.0000000  )

     number of k points=  1632 (tetrahedron method)

     Number of k-points >= 100: set verbosity='high' to print them.

     Dense  grid:     8801 G-vectors     FFT dimensions: (  30,  30,  30)

     Smooth grid:     3119 G-vectors     FFT dimensions: (  24,  24,  24)

     Estimated max dynamical RAM per process >       4.83 MB

     Estimated total dynamical RAM >     308.88 MB

     Check: negative core charge=   -0.000003

     The potential is recalculated from file :
     ./_ph0/pwscf.q_1/pwscf.save/charge-density

     Starting wfcs are    4 atomic +    2 random wfcs

     Band Structure Calculation
     Davidson diagonalization with overlap

     ethr =  3.33E-10,  avg # of iterations = 18.2

     total cpu time spent up to now is        1.0 secs

     End of band structure calculation

     Number of k-points >= 100: set verbosity='high' to print the bands.

     the Fermi energy is     8.0041 ev
 
     [dfpt_tetra]  Dos(E_F)[/Ry] :   0.5458592E+01

     Electron-phonon                                                            

     bravais-lattice index     =            0
     lattice parameter (alat)  =       5.3877  a.u.
     unit-cell volume          =     110.5871 (a.u.)^3
     number of atoms/cell      =            1
     number of atomic types    =            1
     kinetic-energy cut-off    =      35.0000  Ry
     charge density cut-off    =     280.0000  Ry
     convergence threshold     =      1.0E-12
     beta                      =       0.7000
     number of iterations used =            4
     Exchange-correlation= PBE
                           (   1   4   3   4   0   0   0)


     celldm(1)=    5.38774  celldm(2)=    0.00000  celldm(3)=    0.00000
     celldm(4)=    0.00000  celldm(5)=    0.00000  celldm(6)=    0.00000

     crystal axes: (cart. coord. in units of alat)
               a(1) = (  0.0000  0.7071  0.7071 )  
               a(2) = (  0.7071  0.0000  0.7071 )  
               a(3) = (  0.7071  0.7071  0.0000 )  

     reciprocal axes: (cart. coord. in units 2 pi/alat)
               b(1) = ( -0.7071  0.7071  0.7071 )  
               b(2) = (  0.7071 -0.7071  0.7071 )  
               b(3) = (  0.7071  0.7071 -0.7071 )  


     Atoms inside the unit cell: 

     Cartesian axes

     site n.  atom      mass           positions (alat units)
        1  Al     26.9815   tau(    1) = (    0.00000    0.00000    0.00000  )

     Computing dynamical matrix for 
                    q = (   0.0883883   0.0883883   0.0883883 )
 
      6 Sym.Ops. (no q -> -q+G )


     G cutoff =  205.8787  (   8801 G-vectors)     FFT grid: ( 30, 30, 30)
     G cutoff =  102.9393  (   3119 G-vectors)  smooth grid: ( 24, 24, 24)
     number of k points=  1632

     PseudoPot. # 1 for Al read from file:
     ./Al.pbe-n-rrkjus_psl.0.1.UPF
     MD5 check sum: 6479f6627750700cef6db36d98bbe09a
     Pseudo is Ultrasoft + core correction, Zval =  3.0
     Generated using "atomic" code by A. Dal Corso  v.5.0.99 svn rev. 10869
     Using radial grid of 1135 points,  4 beta functions with: 
                l(1) =   0
                l(2) =   0
                l(3) =   1
                l(4) =   1
     Q(r) pseudized with 0 coefficients 



     Atomic displacements:
     There are    2 irreducible representations

     Representation     1      1 modes -  To be done

     Representation     2      2 modes -  To be done


     Message from routine init_vloc:
     Interpolation table for Vloc re-allocated
     PHONON       :      1.46s CPU      1.76s WALL

     Reading dVscf from file dv
     Reading dynamics matrix from file matdyn1

     Diagonalizing the dynamical matrix

     q = (    0.088388348   0.088388348   0.088388348 ) 

 **************************************************************************
     freq (    1) =       2.141339 [THz] =      71.427388 [cm-1]
     freq (    2) =       2.141339 [THz] =      71.427388 [cm-1]
     freq (    3) =       3.802808 [THz] =     126.848038 [cm-1]
 **************************************************************************

     [elph_tetra]   Lowest band which contains FS :          2
     [elph_tetra]  Highest band which contains FS :          3
     [elph_tetra]    # of bands which contains FS :          2
 
     Tetrahedron method
     DOS =  2.729296 states/spin/Ry/Unit Cell at Ef=  8.004054 eV
     double delta at Ef = 11.717814
     lambda(    1)=  0.1939   gamma=    2.32 GHz
     lambda(    2)=  0.1939   gamma=    2.32 GHz
     lambda(    3)=  0.1466   gamma=    5.53 GHz
 
     Number of q in the star =    8
     List of q in the star:
          1   0.088388348   0.088388348   0.088388348
          2   0.088388348  -0.088388348   0.088388348
          3  -0.088388348   0.088388348   0.088388348
          4  -0.088388348  -0.088388348  -0.088388348
          5   0.088388348   0.088388348  -0.088388348
          6  -0.088388348  -0.088388348   0.088388348
          7  -0.088388348   0.088388348  -0.088388348
          8   0.088388348  -0.088388348  -0.088388348

     Calculation of q =    0.2651650   0.2651650  -0.0883883
     [opt_tetra]  Optimized tetrahedron method is used.
 
     G-vector sticks info
     --------------------
     sticks:   dense  smooth     PW     G-vecs:    dense   smooth      PW
     Sum         559     283    109                 8801     3119     749
 
     Using Slab Decomposition
 

     Title: 
     Electron-phonon                                                            


     bravais-lattice index     =            0
     lattice parameter (alat)  =       5.3877  a.u.
     unit-cell volume          =     110.5871 (a.u.)^3
     number of atoms/cell      =            1
     number of atomic types    =            1
     number of electrons       =         3.00
     number of Kohn-Sham states=            6
     kinetic-energy cutoff     =      35.0000  Ry
     charge density cutoff     =     280.0000  Ry
     Exchange-correlation= PBE
                           (   1   4   3   4   0   0   0)

     celldm(1)=   5.387739  celldm(2)=   0.000000  celldm(3)=   0.000000
     celldm(4)=   0.000000  celldm(5)=   0.000000  celldm(6)=   0.000000

     crystal axes: (cart. coord. in units of alat)
               a(1) = (   0.000000   0.707107   0.707107 )  
               a(2) = (   0.707107   0.000000   0.707107 )  
               a(3) = (   0.707107   0.707107   0.000000 )  

     reciprocal axes: (cart. coord. in units 2 pi/alat)
               b(1) = ( -0.707107  0.707107  0.707107 )  
               b(2) = (  0.707107 -0.707107  0.707107 )  
               b(3) = (  0.707107  0.707107 -0.707107 )  


     PseudoPot. # 1 for Al read from file:
     ./Al.pbe-n-rrkjus_psl.0.1.UPF
     MD5 check sum: 6479f6627750700cef6db36d98bbe09a
     Pseudo is Ultrasoft + core correction, Zval =  3.0
     Generated using "atomic" code by A. Dal Corso  v.5.0.99 svn rev. 10869
     Using radial grid of 1135 points,  4 beta functions with: 
                l(1) =   0
                l(2) =   0
                l(3) =   1
                l(4) =   1
     Q(r) pseudized with 0 coefficients 


     atomic species   valence    mass     pseudopotential
     Al                3.00    26.98154     Al( 1.00)

     48 Sym. Ops., with inversion, found



   Cartesian axes

     site n.     atom                  positions (alat units)
         1        Al     tau(   1) = (   0.0000000   0.0000000   0.0000000  )

     number of k points=  4352 (tetrahedron method)

     Number of k-points >= 100: set verbosity='high' to print them.

     Dense  grid:     8801 G-vectors     FFT dimensions: (  30,  30,  30)

     Smooth grid:     3119 G-vectors     FFT dimensions: (  24,  24,  24)

     Estimated max dynamical RAM per process >       6.32 MB

     Estimated total dynamical RAM >     404.51 MB

     Check: negative core charge=   -0.000003

     The potential is recalculated from file :
     ./_ph0/pwscf.q_2/pwscf.save/charge-density

     Starting wfcs are    4 atomic +    2 random wfcs

     Band Structure Calculation
     Davidson diagonalization with overlap

     ethr =  3.33E-10,  avg # of iterations = 18.1

     total cpu time spent up to now is        2.6 secs

     End of band structure calculation

     Number of k-points >= 100: set verbosity='high' to print the bands.

     the Fermi energy is     8.0041 ev
 
     [dfpt_tetra]  Dos(E_F)[/Ry] :   0.5458592E+01

     Electron-phonon                                                            

     bravais-lattice index     =            0
     lattice parameter (alat)  =       5.3877  a.u.
     unit-cell volume          =     110.5871 (a.u.)^3
     number of atoms/cell      =            1
     number of atomic types    =            1
     kinetic-energy cut-off    =      35.0000  Ry
     charge density cut-off    =     280.0000  Ry
     convergence threshold     =      1.0E-12
     beta                      =       0.7000
     number of iterations used =            4
     Exchange-correlation= PBE
                           (   1   4   3   4   0   0   0)


     celldm(1)=    5.38774  celldm(2)=    0.00000  celldm(3)=    0.00000
     celldm(4)=    0.00000  celldm(5)=    0.00000  celldm(6)=    0.00000

     crystal axes: (cart. coord. in units of alat)
               a(1) = (  0.0000  0.7071  0.7071 )  
               a(2) = (  0.7071  0.0000  0.7071 )  
               a(3) = (  0.7071  0.7071  0.0000 )  

     reciprocal axes: (cart. coord. in units 2 pi/alat)
               b(1) = ( -0.7071  0.7071  0.7071 )  
               b(2) = (  0.7071 -0.7071  0.7071 )  
               b(3) = (  0.7071  0.7071 -0.7071 )  


     Atoms inside the unit cell: 

     Cartesian axes

     site n.  atom      mass           positions (alat units)
        1  Al     26.9815   tau(    1) = (    0.00000    0.00000    0.00000  )

     Computing dynamical matrix for 
                    q = (   0.2651650   0.2651650  -0.0883883 )
 
      2 Sym.Ops. (no q -> -q+G )


     G cutoff =  205.8787  (   8801 G-vectors)     FFT grid: ( 30, 30, 30)
     G cutoff =  102.9393  (   3119 G-vectors)  smooth grid: ( 24, 24, 24)
     number of k points=  4352

     PseudoPot. # 1 for Al read from file:
     ./Al.pbe-n-rrkjus_psl.0.1.UPF
     MD5 check sum: 6479f6627750700cef6db36d98bbe09a
     Pseudo is Ultrasoft + core correction, Zval =  3.0
     Generated using "atomic" code by A. Dal Corso  v.5.0.99 svn rev. 10869
     Using radial grid of 1135 points,  4 beta functions with: 
                l(1) =   0
                l(2) =   0
                l(3) =   1
                l(4) =   1
     Q(r) pseudized with 0 coefficients 



     Atomic displacements:
     There are    3 irreducible representations

     Representation     1      1 modes -  To be done

     Representation     2      1 modes -  To be done

     Representation     3      1 modes -  To be done


     PHONON       :      3.30s CPU      3.97s WALL

     Reading dVscf from file dv
     Reading dynamics matrix from file matdyn2

     Diagonalizing the dynamical matrix

     q = (    0.265165043   0.265165043  -0.088388348 ) 

 **************************************************************************
     freq (    1) =       4.076934 [THz] =     135.991878 [cm-1]
     freq (    2) =       4.823597 [THz] =     160.897877 [cm-1]
     freq (    3) =       7.813142 [THz] =     260.618354 [cm-1]
 **************************************************************************

     [elph_tetra]   Lowest band which contains FS :          2
     [elph_tetra]  Highest band which contains FS :          3
     [elph_tetra]    # of bands which contains FS :          2
 
     Tetrahedron method
     DOS =  2.729296 states/spin/Ry/Unit Cell at Ef=  8.004054 eV
     double delta at Ef = 15.299009
     lambda(    1)=  0.0213   gamma=    0.92 GHz
     lambda(    2)=  0.1242   gamma=    7.53 GHz
     lambda(    3)=  0.2275   gamma=   36.20 GHz
 
     Number of q in the star =   24
     List of q in the star:
          1   0.265165043   0.265165043  -0.088388348
          2  -0.088388348   0.265165043   0.265165043
          3   0.265165043  -0.088388348   0.265165043
          4   0.265165043  -0.265165043  -0.088388348
          5  -0.265165043   0.265165043  -0.088388348
          6  -0.088388348  -0.265165043   0.265165043
          7   0.088388348  -0.265165043  -0.265165043
          8  -0.088388348   0.265165043  -0.265165043
          9   0.088388348   0.265165043   0.265165043
         10  -0.265165043  -0.088388348   0.265165043
         11  -0.265165043   0.088388348  -0.265165043
         12   0.265165043  -0.088388348  -0.265165043
         13   0.265165043   0.088388348   0.265165043
         14  -0.265165043  -0.265165043  -0.088388348
         15  -0.265165043  -0.088388348  -0.265165043
         16   0.265165043   0.088388348  -0.265165043
         17  -0.265165043   0.088388348   0.265165043
         18  -0.265165043   0.265165043   0.088388348
         19  -0.088388348  -0.265165043  -0.265165043
         20   0.088388348  -0.265165043   0.265165043
         21   0.088388348   0.265165043  -0.265165043
         22  -0.265165043  -0.265165043   0.088388348
         23   0.265165043   0.265165043   0.088388348
         24   0.265165043  -0.265165043   0.088388348

     Calculation of q =   -0.2651650  -0.2651650   0.4419417
     [opt_tetra]  Optimized tetrahedron method is used.
 
     G-vector sticks info
     --------------------
     sticks:   dense  smooth     PW     G-vecs:    dense   smooth      PW
     Sum         559     283    121                 8801     3119     869
 
     Using Slab Decomposition
 

     Title: 
     Electron-phonon                                                            


     bravais-lattice index     =            0
     lattice parameter (alat)  =       5.3877  a.u.
     unit-cell volume          =     110.5871 (a.u.)^3
     number of atoms/cell      =            1
     number of atomic types    =            1
     number of electrons       =         3.00
     number of Kohn-Sham states=            6
     kinetic-energy cutoff     =      35.0000  Ry
     charge density cutoff     =     280.0000  Ry
     Exchange-correlation= PBE
                           (   1   4   3   4   0   0   0)

     celldm(1)=   5.387739  celldm(2)=   0.000000  celldm(3)=   0.000000
     celldm(4)=   0.000000  celldm(5)=   0.000000  celldm(6)=   0.000000

     crystal axes: (cart. coord. in units of alat)
               a(1) = (   0.000000   0.707107   0.707107 )  
               a(2) = (   0.707107   0.000000   0.707107 )  
               a(3) = (   0.707107   0.707107   0.000000 )  

     reciprocal axes: (cart. coord. in units 2 pi/alat)
               b(1) = ( -0.707107  0.707107  0.707107 )  
               b(2) = (  0.707107 -0.707107  0.707107 )  
               b(3) = (  0.707107  0.707107 -0.707107 )  


     PseudoPot. # 1 for Al read from file:
     ./Al.pbe-n-rrkjus_psl.0.1.UPF
     MD5 check sum: 6479f6627750700cef6db36d98bbe09a
     Pseudo is Ultrasoft + core correction, Zval =  3.0
     Generated using "atomic" code by A. Dal Corso  v.5.0.99 svn rev. 10869
     Using radial grid of 1135 points,  4 beta functions with: 
                l(1) =   0
                l(2) =   0
                l(3) =   1
                l(4) =   1
     Q(r) pseudized with 0 coefficients 


     atomic species   valence    mass     pseudopotential
     Al                3.00    26.98154     Al( 1.00)

     48 Sym. Ops., with inversion, found



   Cartesian axes

     site n.     atom                  positions (alat units)
         1        Al     tau(   1) = (   0.0000000   0.0000000   0.0000000  )

     number of k points=  4352 (tetrahedron method)

     Number of k-points >= 100: set verbosity='high' to print them.

     Dense  grid:     8801 G-vectors     FFT dimensions: (  30,  30,  30)

     Smooth grid:     3119 G-vectors     FFT dimensions: (  24,  24,  24)

     Estimated max dynamical RAM per process >       6.33 MB

     Estimated total dynamical RAM >     404.84 MB

     Check: negative core charge=   -0.000003

     The potential is recalculated from file :
     ./_ph0/pwscf.q_3/pwscf.save/charge-density

     Starting wfcs are    4 atomic +    2 random wfcs

     Band Structure Calculation
     Davidson diagonalization with overlap

     ethr =  3.33E-10,  avg # of iterations = 18.1

     total cpu time spent up to now is        4.1 secs

     End of band structure calculation

     Number of k-points >= 100: set verbosity='high' to print the bands.

     the Fermi energy is     8.0041 ev
 
     [dfpt_tetra]  Dos(E_F)[/Ry] :   0.5458592E+01

     Electron-phonon                                                            

     bravais-lattice index     =            0
     lattice parameter (alat)  =       5.3877  a.u.
     unit-cell volume          =     110.5871 (a.u.)^3
     number of atoms/cell      =            1
     number of atomic types    =            1
     kinetic-energy cut-off    =      35.0000  Ry
     charge density cut-off    =     280.0000  Ry
     convergence threshold     =      1.0E-12
     beta                      =       0.7000
     number of iterations used =            4
     Exchange-correlation= PBE
                           (   1   4   3   4   0   0   0)


     celldm(1)=    5.38774  celldm(2)=    0.00000  celldm(3)=    0.00000
     celldm(4)=    0.00000  celldm(5)=    0.00000  celldm(6)=    0.00000

     crystal axes: (cart. coord. in units of alat)
               a(1) = (  0.0000  0.7071  0.7071 )  
               a(2) = (  0.7071  0.0000  0.7071 )  
               a(3) = (  0.7071  0.7071  0.0000 )  

     reciprocal axes: (cart. coord. in units 2 pi/alat)
               b(1) = ( -0.7071  0.7071  0.7071 )  
               b(2) = (  0.7071 -0.7071  0.7071 )  
               b(3) = (  0.7071  0.7071 -0.7071 )  


     Atoms inside the unit cell: 

     Cartesian axes

     site n.  atom      mass           positions (alat units)
        1  Al     26.9815   tau(    1) = (    0.00000    0.00000    0.00000  )

     Computing dynamical matrix for 
                    q = (  -0.2651650  -0.2651650   0.4419417 )
 
      2 Sym.Ops. (no q -> -q+G )


     G cutoff =  205.8787  (   8801 G-vectors)     FFT grid: ( 30, 30, 30)
     G cutoff =  102.9393  (   3119 G-vectors)  smooth grid: ( 24, 24, 24)
     number of k points=  4352

     PseudoPot. # 1 for Al read from file:
     ./Al.pbe-n-rrkjus_psl.0.1.UPF
     MD5 check sum: 6479f6627750700cef6db36d98bbe09a
     Pseudo is Ultrasoft + core correction, Zval =  3.0
     Generated using "atomic" code by A. Dal Corso  v.5.0.99 svn rev. 10869
     Using radial grid of 1135 points,  4 beta functions with: 
                l(1) =   0
                l(2) =   0
                l(3) =   1
                l(4) =   1
     Q(r) pseudized with 0 coefficients 



     Atomic displacements:
     There are    3 irreducible representations

     Representation     1      1 modes -  To be done

     Representation     2      1 modes -  To be done

     Representation     3      1 modes -  To be done


     PHONON       :      5.16s CPU      6.20s WALL

     Reading dVscf from file dv
     Reading dynamics matrix from file matdyn3

     Diagonalizing the dynamical matrix

     q = (   -0.265165043  -0.265165043   0.441941738 ) 

 **************************************************************************
     freq (    1) =       4.679470 [THz] =     156.090326 [cm-1]
     freq (    2) =       5.531864 [THz] =     184.523127 [cm-1]
     freq (    3) =       9.518663 [THz] =     317.508414 [cm-1]
 **************************************************************************

     [elph_tetra]   Lowest band which contains FS :          2
     [elph_tetra]  Highest band which contains FS :          3
     [elph_tetra]    # of bands which contains FS :          2
 
     Tetrahedron method
     DOS =  2.729296 states/spin/Ry/Unit Cell at Ef=  8.004054 eV
     double delta at Ef = 16.369325
     lambda(    1)=  0.0877   gamma=    5.00 GHz
     lambda(    2)=  0.0857   gamma=    6.83 GHz
     lambda(    3)=  0.1829   gamma=   43.19 GHz
 
     Number of q in the star =   24
     List of q in the star:
          1  -0.265165043  -0.265165043   0.441941738
          2   0.441941738  -0.265165043  -0.265165043
          3  -0.265165043   0.441941738  -0.265165043
          4  -0.265165043   0.265165043   0.441941738
          5   0.265165043  -0.265165043   0.441941738
          6   0.441941738   0.265165043  -0.265165043
          7  -0.441941738   0.265165043   0.265165043
          8   0.441941738  -0.265165043   0.265165043
          9  -0.441941738  -0.265165043  -0.265165043
         10   0.265165043   0.441941738  -0.265165043
         11   0.265165043  -0.441941738   0.265165043
         12  -0.265165043   0.441941738   0.265165043
         13  -0.265165043  -0.441941738  -0.265165043
         14   0.265165043   0.265165043   0.441941738
         15   0.265165043   0.441941738   0.265165043
         16  -0.265165043  -0.441941738   0.265165043
         17   0.265165043  -0.441941738  -0.265165043
         18   0.265165043  -0.265165043  -0.441941738
         19   0.441941738   0.265165043   0.265165043
         20  -0.441941738   0.265165043  -0.265165043
         21  -0.441941738  -0.265165043   0.265165043
         22   0.265165043   0.265165043  -0.441941738
         23  -0.265165043  -0.265165043  -0.441941738
         24  -0.265165043   0.265165043  -0.441941738

     Calculation of q =   -0.0883883  -0.0883883   0.2651650
     [opt_tetra]  Optimized tetrahedron method is used.
 
     G-vector sticks info
     --------------------
     sticks:   dense  smooth     PW     G-vecs:    dense   smooth      PW
     Sum         559     283    109                 8801     3119     725
 
     Using Slab Decomposition
 

     Title: 
     Electron-phonon                                                            


     bravais-lattice index     =            0
     lattice parameter (alat)  =       5.3877  a.u.
     unit-cell volume          =     110.5871 (a.u.)^3
     number of atoms/cell      =            1
     number of atomic types    =            1
     number of electrons       =         3.00
     number of Kohn-Sham states=            6
     kinetic-energy cutoff     =      35.0000  Ry
     charge density cutoff     =     280.0000  Ry
     Exchange-correlation= PBE
                           (   1   4   3   4   0   0   0)

     celldm(1)=   5.387739  celldm(2)=   0.000000  celldm(3)=   0.000000
     celldm(4)=   0.000000  celldm(5)=   0.000000  celldm(6)=   0.000000

     crystal axes: (cart. coord. in units of alat)
               a(1) = (   0.000000   0.707107   0.707107 )  
               a(2) = (   0.707107   0.000000   0.707107 )  
               a(3) = (   0.707107   0.707107   0.000000 )  

     reciprocal axes: (cart. coord. in units 2 pi/alat)
               b(1) = ( -0.707107  0.707107  0.707107 )  
               b(2) = (  0.707107 -0.707107  0.707107 )  
               b(3) = (  0.707107  0.707107 -0.707107 )  


     PseudoPot. # 1 for Al read from file:
     ./Al.pbe-n-rrkjus_psl.0.1.UPF
     MD5 check sum: 6479f6627750700cef6db36d98bbe09a
     Pseudo is Ultrasoft + core correction, Zval =  3.0
     Generated using "atomic" code by A. Dal Corso  v.5.0.99 svn rev. 10869
     Using radial grid of 1135 points,  4 beta functions with: 
                l(1) =   0
                l(2) =   0
                l(3) =   1
                l(4) =   1
     Q(r) pseudized with 0 coefficients 


     atomic species   valence    mass     pseudopotential
     Al                3.00    26.98154     Al( 1.00)

     48 Sym. Ops., with inversion, found



   Cartesian axes

     site n.     atom                  positions (alat units)
         1        Al     tau(   1) = (   0.0000000   0.0000000   0.0000000  )

     number of k points=  4352 (tetrahedron method)

     Number of k-points >= 100: set verbosity='high' to print them.

     Dense  grid:     8801 G-vectors     FFT dimensions: (  30,  30,  30)

     Smooth grid:     3119 G-vectors     FFT dimensions: (  24,  24,  24)

     Estimated max dynamical RAM per process >       6.32 MB

     Estimated total dynamical RAM >     404.35 MB

     Check: negative core charge=   -0.000003

     The potential is recalculated from file :
     ./_ph0/pwscf.q_4/pwscf.save/charge-density

     Starting wfcs are    4 atomic +    2 random wfcs

     Band Structure Calculation
     Davidson diagonalization with overlap

     ethr =  3.33E-10,  avg # of iterations = 18.1

     total cpu time spent up to now is        5.6 secs

     End of band structure calculation

     Number of k-points >= 100: set verbosity='high' to print the bands.

     the Fermi energy is     8.0041 ev
 
     [dfpt_tetra]  Dos(E_F)[/Ry] :   0.5458592E+01

     Electron-phonon                                                            

     bravais-lattice index     =            0
     lattice parameter (alat)  =       5.3877  a.u.
     unit-cell volume          =     110.5871 (a.u.)^3
     number of atoms/cell      =            1
     number of atomic types    =            1
     kinetic-energy cut-off    =      35.0000  Ry
     charge density cut-off    =     280.0000  Ry
     convergence threshold     =      1.0E-12
     beta                      =       0.7000
     number of iterations used =            4
     Exchange-correlation= PBE
                           (   1   4   3   4   0   0   0)


     celldm(1)=    5.38774  celldm(2)=    0.00000  celldm(3)=    0.00000
     celldm(4)=    0.00000  celldm(5)=    0.00000  celldm(6)=    0.00000

     crystal axes: (cart. coord. in units of alat)
               a(1) = (  0.0000  0.7071  0.7071 )  
               a(2) = (  0.7071  0.0000  0.7071 )  
               a(3) = (  0.7071  0.7071  0.0000 )  

     reciprocal axes: (cart. coord. in units 2 pi/alat)
               b(1) = ( -0.7071  0.7071  0.7071 )  
               b(2) = (  0.7071 -0.7071  0.7071 )  
               b(3) = (  0.7071  0.7071 -0.7071 )  


     Atoms inside the unit cell: 

     Cartesian axes

     site n.  atom      mass           positions (alat units)
        1  Al     26.9815   tau(    1) = (    0.00000    0.00000    0.00000  )

     Computing dynamical matrix for 
                    q = (  -0.0883883  -0.0883883   0.2651650 )
 
      2 Sym.Ops. (no q -> -q+G )


     G cutoff =  205.8787  (   8801 G-vectors)     FFT grid: ( 30, 30, 30)
     G cutoff =  102.9393  (   3119 G-vectors)  smooth grid: ( 24, 24, 24)
     number of k points=  4352

     PseudoPot. # 1 for Al read from file:
     ./Al.pbe-n-rrkjus_psl.0.1.UPF
     MD5 check sum: 6479f6627750700cef6db36d98bbe09a
     Pseudo is Ultrasoft + core correction, Zval =  3.0
     Generated using "atomic" code by A. Dal Corso  v.5.0.99 svn rev. 10869
     Using radial grid of 1135 points,  4 beta functions with: 
                l(1) =   0
                l(2) =   0
                l(3) =   1
                l(4) =   1
     Q(r) pseudized with 0 coefficients 



     Atomic displacements:
     There are    3 irreducible representations

     Representation     1      1 modes -  To be done

     Representation     2      1 modes -  To be done

     Representation     3      1 modes -  To be done


     PHONON       :      6.99s CPU      8.49s WALL

     Reading dVscf from file dv
     Reading dynamics matrix from file matdyn4

     Diagonalizing the dynamical matrix

     q = (   -0.088388348  -0.088388348   0.265165043 ) 

 **************************************************************************
     freq (    1) =       3.599856 [THz] =     120.078272 [cm-1]
     freq (    2) =       3.722560 [THz] =     124.171235 [cm-1]
     freq (    3) =       6.423161 [THz] =     214.253600 [cm-1]
 **************************************************************************

     [elph_tetra]   Lowest band which contains FS :          2
     [elph_tetra]  Highest band which contains FS :          3
     [elph_tetra]    # of bands which contains FS :          2
 
     Tetrahedron method
     DOS =  2.729296 states/spin/Ry/Unit Cell at Ef=  8.004054 eV
     double delta at Ef = 22.051409
     lambda(    1)=  0.2120   gamma=    7.16 GHz
     lambda(    2)=  0.1607   gamma=    5.80 GHz
     lambda(    3)=  0.3176   gamma=   34.15 GHz
 
     Number of q in the star =   24
     List of q in the star:
          1  -0.088388348  -0.088388348   0.265165043
          2   0.265165043  -0.088388348  -0.088388348
          3  -0.088388348   0.265165043  -0.088388348
          4  -0.088388348   0.088388348   0.265165043
          5   0.088388348  -0.088388348   0.265165043
          6   0.265165043   0.088388348  -0.088388348
          7  -0.265165043   0.088388348   0.088388348
          8   0.265165043  -0.088388348   0.088388348
          9  -0.265165043  -0.088388348  -0.088388348
         10   0.088388348   0.265165043  -0.088388348
         11   0.088388348  -0.265165043   0.088388348
         12  -0.088388348   0.265165043   0.088388348
         13  -0.088388348  -0.265165043  -0.088388348
         14   0.088388348   0.088388348   0.265165043
         15   0.088388348   0.265165043   0.088388348
         16  -0.088388348  -0.265165043   0.088388348
         17   0.088388348  -0.265165043  -0.088388348
         18   0.088388348  -0.088388348  -0.265165043
         19   0.265165043   0.088388348   0.088388348
         20  -0.265165043   0.088388348  -0.088388348
         21  -0.265165043  -0.088388348   0.088388348
         22   0.088388348   0.088388348  -0.265165043
         23  -0.088388348  -0.088388348  -0.265165043
         24  -0.088388348   0.088388348  -0.265165043

     Calculation of q =    0.4419417   0.0883883   0.0883883
     [opt_tetra]  Optimized tetrahedron method is used.
 
     G-vector sticks info
     --------------------
     sticks:   dense  smooth     PW     G-vecs:    dense   smooth      PW
     Sum         559     283    109                 8801     3119     749
 
     Using Slab Decomposition
 

     Title: 
     Electron-phonon                                                            


     bravais-lattice index     =            0
     lattice parameter (alat)  =       5.3877  a.u.
     unit-cell volume          =     110.5871 (a.u.)^3
     number of atoms/cell      =            1
     number of atomic types    =            1
     number of electrons       =         3.00
     number of Kohn-Sham states=            6
     kinetic-energy cutoff     =      35.0000  Ry
     charge density cutoff     =     280.0000  Ry
     Exchange-correlation= PBE
                           (   1   4   3   4   0   0   0)

     celldm(1)=   5.387739  celldm(2)=   0.000000  celldm(3)=   0.000000
     celldm(4)=   0.000000  celldm(5)=   0.000000  celldm(6)=   0.000000

     crystal axes: (cart. coord. in units of alat)
               a(1) = (   0.000000   0.707107   0.707107 )  
               a(2) = (   0.707107   0.000000   0.707107 )  
               a(3) = (   0.707107   0.707107   0.000000 )  

     reciprocal axes: (cart. coord. in units 2 pi/alat)
               b(1) = ( -0.707107  0.707107  0.707107 )  
               b(2) = (  0.707107 -0.707107  0.707107 )  
               b(3) = (  0.707107  0.707107 -0.707107 )  


     PseudoPot. # 1 for Al read from file:
     ./Al.pbe-n-rrkjus_psl.0.1.UPF
     MD5 check sum: 6479f6627750700cef6db36d98bbe09a
     Pseudo is Ultrasoft + core correction, Zval =  3.0
     Generated using "atomic" code by A. Dal Corso  v.5.0.99 svn rev. 10869
     Using radial grid of 1135 points,  4 beta functions with: 
                l(1) =   0
                l(2) =   0
                l(3) =   1
                l(4) =   1
     Q(r) pseudized with 0 coefficients 


     atomic species   valence    mass     pseudopotential
     Al                3.00    26.98154     Al( 1.00)

     48 Sym. Ops., with inversion, found



   Cartesian axes

     site n.     atom                  positions (alat units)
         1        Al     tau(   1) = (   0.0000000   0.0000000   0.0000000  )

     number of k points=  4352 (tetrahedron method)

     Number of k-points >= 100: set verbosity='high' to print them.

     Dense  grid:     8801 G-vectors     FFT dimensions: (  30,  30,  30)

     Smooth grid:     3119 G-vectors     FFT dimensions: (  24,  24,  24)

     Estimated max dynamical RAM per process >       6.32 MB

     Estimated total dynamical RAM >     404.63 MB

     Check: negative core charge=   -0.000003

     The potential is recalculated from file :
     ./_ph0/pwscf.q_5/pwscf.save/charge-density

     Starting wfcs are    4 atomic +    2 random wfcs

     Band Structure Calculation
     Davidson diagonalization with overlap

     ethr =  3.33E-10,  avg # of iterations = 18.1

     total cpu time spent up to now is        7.1 secs

     End of band structure calculation

     Number of k-points >= 100: set verbosity='high' to print the bands.

     the Fermi energy is     8.0041 ev
 
     [dfpt_tetra]  Dos(E_F)[/Ry] :   0.5458592E+01

     Electron-phonon                                                            

     bravais-lattice index     =            0
     lattice parameter (alat)  =       5.3877  a.u.
     unit-cell volume          =     110.5871 (a.u.)^3
     number of atoms/cell      =            1
     number of atomic types    =            1
     kinetic-energy cut-off    =      35.0000  Ry
     charge density cut-off    =     280.0000  Ry
     convergence threshold     =      1.0E-12
     beta                      =       0.7000
     number of iterations used =            4
     Exchange-correlation= PBE
                           (   1   4   3   4   0   0   0)


     celldm(1)=    5.38774  celldm(2)=    0.00000  celldm(3)=    0.00000
     celldm(4)=    0.00000  celldm(5)=    0.00000  celldm(6)=    0.00000

     crystal axes: (cart. coord. in units of alat)
               a(1) = (  0.0000  0.7071  0.7071 )  
               a(2) = (  0.7071  0.0000  0.7071 )  
               a(3) = (  0.7071  0.7071  0.0000 )  

     reciprocal axes: (cart. coord. in units 2 pi/alat)
               b(1) = ( -0.7071  0.7071  0.7071 )  
               b(2) = (  0.7071 -0.7071  0.7071 )  
               b(3) = (  0.7071  0.7071 -0.7071 )  


     Atoms inside the unit cell: 

     Cartesian axes

     site n.  atom      mass           positions (alat units)
        1  Al     26.9815   tau(    1) = (    0.00000    0.00000    0.00000  )

     Computing dynamical matrix for 
                    q = (   0.4419417   0.0883883   0.0883883 )
 
      2 Sym.Ops. (no q -> -q+G )


     G cutoff =  205.8787  (   8801 G-vectors)     FFT grid: ( 30, 30, 30)
     G cutoff =  102.9393  (   3119 G-vectors)  smooth grid: ( 24, 24, 24)
     number of k points=  4352

     PseudoPot. # 1 for Al read from file:
     ./Al.pbe-n-rrkjus_psl.0.1.UPF
     MD5 check sum: 6479f6627750700cef6db36d98bbe09a
     Pseudo is Ultrasoft + core correction, Zval =  3.0
     Generated using "atomic" code by A. Dal Corso  v.5.0.99 svn rev. 10869
     Using radial grid of 1135 points,  4 beta functions with: 
                l(1) =   0
                l(2) =   0
                l(3) =   1
                l(4) =   1
     Q(r) pseudized with 0 coefficients 



     Atomic displacements:
     There are    3 irreducible representations

     Representation     1      1 modes -  To be done

     Representation     2      1 modes -  To be done

     Representation     3      1 modes -  To be done


     PHONON       :      8.90s CPU     10.76s WALL

     Reading dVscf from file dv
     Reading dynamics matrix from file matdyn5

     Diagonalizing the dynamical matrix

     q = (    0.441941738   0.088388348   0.088388348 ) 

 **************************************************************************
     freq (    1) =       4.933281 [THz] =     164.556540 [cm-1]
     freq (    2) =       5.508196 [THz] =     183.733647 [cm-1]
     freq (    3) =       8.400453 [THz] =     280.208943 [cm-1]
 **************************************************************************

     [elph_tetra]   Lowest band which contains FS :          2
     [elph_tetra]  Highest band which contains FS :          3
     [elph_tetra]    # of bands which contains FS :          2
 
     Tetrahedron method
     DOS =  2.729296 states/spin/Ry/Unit Cell at Ef=  8.004054 eV
     double delta at Ef = 13.387390
     lambda(    1)=  0.1014   gamma=    6.43 GHz
     lambda(    2)=  0.0718   gamma=    5.68 GHz
     lambda(    3)=  0.1960   gamma=   36.04 GHz
 
     Number of q in the star =   24
     List of q in the star:
          1   0.441941738   0.088388348   0.088388348
          2   0.088388348   0.441941738   0.088388348
          3   0.088388348   0.088388348   0.441941738
          4   0.088388348  -0.441941738   0.088388348
          5  -0.088388348   0.441941738   0.088388348
          6   0.088388348  -0.088388348   0.441941738
          7  -0.088388348  -0.088388348  -0.441941738
          8   0.088388348   0.088388348  -0.441941738
          9  -0.088388348   0.088388348   0.441941738
         10  -0.441941738   0.088388348   0.088388348
         11  -0.441941738  -0.088388348  -0.088388348
         12   0.441941738   0.088388348  -0.088388348
         13   0.441941738  -0.088388348   0.088388348
         14  -0.441941738  -0.088388348   0.088388348
         15  -0.088388348   0.088388348  -0.441941738
         16   0.088388348  -0.088388348  -0.441941738
         17  -0.088388348  -0.088388348   0.441941738
         18  -0.441941738   0.088388348  -0.088388348
         19   0.088388348  -0.441941738  -0.088388348
         20  -0.088388348  -0.441941738   0.088388348
         21  -0.088388348   0.441941738  -0.088388348
         22   0.441941738  -0.088388348  -0.088388348
         23   0.088388348   0.441941738  -0.088388348
         24  -0.088388348  -0.441941738  -0.088388348

     Calculation of q =   -0.0883883  -0.4419417   0.6187184
     [opt_tetra]  Optimized tetrahedron method is used.
 
     G-vector sticks info
     --------------------
     sticks:   dense  smooth     PW     G-vecs:    dense   smooth      PW
     Sum         559     283    121                 8801     3119     941
 
     Using Slab Decomposition
 

     Title: 
     Electron-phonon                                                            


     bravais-lattice index     =            0
     lattice parameter (alat)  =       5.3877  a.u.
     unit-cell volume          =     110.5871 (a.u.)^3
     number of atoms/cell      =            1
     number of atomic types    =            1
     number of electrons       =         3.00
     number of Kohn-Sham states=            6
     kinetic-energy cutoff     =      35.0000  Ry
     charge density cutoff     =     280.0000  Ry
     Exchange-correlation= PBE
                           (   1   4   3   4   0   0   0)

     celldm(1)=   5.387739  celldm(2)=   0.000000  celldm(3)=   0.000000
     celldm(4)=   0.000000  celldm(5)=   0.000000  celldm(6)=   0.000000

     crystal axes: (cart. coord. in units of alat)
               a(1) = (   0.000000   0.707107   0.707107 )  
               a(2) = (   0.707107   0.000000   0.707107 )  
               a(3) = (   0.707107   0.707107   0.000000 )  

     reciprocal axes: (cart. coord. in units 2 pi/alat)
               b(1) = ( -0.707107  0.707107  0.707107 )  
               b(2) = (  0.707107 -0.707107  0.707107 )  
               b(3) = (  0.707107  0.707107 -0.707107 )  


     PseudoPot. # 1 for Al read from file:
     ./Al.pbe-n-rrkjus_psl.0.1.UPF
     MD5 check sum: 6479f6627750700cef6db36d98bbe09a
     Pseudo is Ultrasoft + core correction, Zval =  3.0
     Generated using "atomic" code by A. Dal Corso  v.5.0.99 svn rev. 10869
     Using radial grid of 1135 points,  4 beta functions with: 
                l(1) =   0
                l(2) =   0
                l(3) =   1
                l(4) =   1
     Q(r) pseudized with 0 coefficients 


     atomic species   valence    mass     pseudopotential
     Al                3.00    26.98154     Al( 1.00)

     48 Sym. Ops., with inversion, found



   Cartesian axes

     site n.     atom                  positions (alat units)
         1        Al     tau(   1) = (   0.0000000   0.0000000   0.0000000  )

     number of k points=  8192 (tetrahedron method)

     Number of k-points >= 100: set verbosity='high' to print them.

     Dense  grid:     8801 G-vectors     FFT dimensions: (  30,  30,  30)

     Smooth grid:     3119 G-vectors     FFT dimensions: (  24,  24,  24)

     Estimated max dynamical RAM per process >       8.46 MB

     Estimated total dynamical RAM >     541.21 MB

     Check: negative core charge=   -0.000003

     The potential is recalculated from file :
     ./_ph0/pwscf.q_6/pwscf.save/charge-density

     Starting wfcs are    4 atomic +    2 random wfcs

     Band Structure Calculation
     Davidson diagonalization with overlap

     ethr =  3.33E-10,  avg # of iterations = 18.0

     total cpu time spent up to now is        9.6 secs

     End of band structure calculation

     Number of k-points >= 100: set verbosity='high' to print the bands.

     the Fermi energy is     8.0041 ev
 
     [dfpt_tetra]  Dos(E_F)[/Ry] :   0.5458592E+01

     Electron-phonon                                                            

     bravais-lattice index     =            0
     lattice parameter (alat)  =       5.3877  a.u.
     unit-cell volume          =     110.5871 (a.u.)^3
     number of atoms/cell      =            1
     number of atomic types    =            1
     kinetic-energy cut-off    =      35.0000  Ry
     charge density cut-off    =     280.0000  Ry
     convergence threshold     =      1.0E-12
     beta                      =       0.7000
     number of iterations used =            4
     Exchange-correlation= PBE
                           (   1   4   3   4   0   0   0)


     celldm(1)=    5.38774  celldm(2)=    0.00000  celldm(3)=    0.00000
     celldm(4)=    0.00000  celldm(5)=    0.00000  celldm(6)=    0.00000

     crystal axes: (cart. coord. in units of alat)
               a(1) = (  0.0000  0.7071  0.7071 )  
               a(2) = (  0.7071  0.0000  0.7071 )  
               a(3) = (  0.7071  0.7071  0.0000 )  

     reciprocal axes: (cart. coord. in units 2 pi/alat)
               b(1) = ( -0.7071  0.7071  0.7071 )  
               b(2) = (  0.7071 -0.7071  0.7071 )  
               b(3) = (  0.7071  0.7071 -0.7071 )  


     Atoms inside the unit cell: 

     Cartesian axes

     site n.  atom      mass           positions (alat units)
        1  Al     26.9815   tau(    1) = (    0.00000    0.00000    0.00000  )

     Computing dynamical matrix for 
                    q = (  -0.0883883  -0.4419417   0.6187184 )
 
     No symmetry!

     G cutoff =  205.8787  (   8801 G-vectors)     FFT grid: ( 30, 30, 30)
     G cutoff =  102.9393  (   3119 G-vectors)  smooth grid: ( 24, 24, 24)
     number of k points=  8192

     PseudoPot. # 1 for Al read from file:
     ./Al.pbe-n-rrkjus_psl.0.1.UPF
     MD5 check sum: 6479f6627750700cef6db36d98bbe09a
     Pseudo is Ultrasoft + core correction, Zval =  3.0
     Generated using "atomic" code by A. Dal Corso  v.5.0.99 svn rev. 10869
     Using radial grid of 1135 points,  4 beta functions with: 
                l(1) =   0
                l(2) =   0
                l(3) =   1
                l(4) =   1
     Q(r) pseudized with 0 coefficients 



     Atomic displacements:
     There are    3 irreducible representations

     Representation     1      1 modes -  To be done

     Representation     2      1 modes -  To be done

     Representation     3      1 modes -  To be done


     PHONON       :     11.80s CPU     14.03s WALL

     Reading dVscf from file dv
     Reading dynamics matrix from file matdyn6

     Diagonalizing the dynamical matrix

     q = (   -0.088388348  -0.441941738   0.618718434 ) 

 **************************************************************************
     freq (    1) =       5.955161 [THz] =     198.642774 [cm-1]
     freq (    2) =       7.631236 [THz] =     254.550648 [cm-1]
     freq (    3) =       8.912459 [THz] =     297.287646 [cm-1]
 **************************************************************************

     [elph_tetra]   Lowest band which contains FS :          2
     [elph_tetra]  Highest band which contains FS :          3
     [elph_tetra]    # of bands which contains FS :          2
 
     Tetrahedron method
     DOS =  2.729296 states/spin/Ry/Unit Cell at Ef=  8.004054 eV
     double delta at Ef = 15.107388
     lambda(    1)=  0.1281   gamma=   11.84 GHz
     lambda(    2)=  0.1181   gamma=   17.93 GHz
     lambda(    3)=  0.1561   gamma=   32.31 GHz
 
     Number of q in the star =   48
     List of q in the star:
          1  -0.088388348  -0.441941738   0.618718434
          2  -0.088388348   0.618718434  -0.441941738
          3   0.618718434  -0.088388348  -0.441941738
          4  -0.441941738   0.618718434  -0.088388348
          5   0.618718434  -0.441941738  -0.088388348
          6  -0.441941738  -0.088388348   0.618718434
          7  -0.441941738   0.088388348   0.618718434
          8   0.441941738  -0.088388348   0.618718434
          9   0.618718434   0.441941738  -0.088388348
         10  -0.618718434   0.441941738   0.088388348
         11   0.618718434  -0.441941738   0.088388348
         12  -0.618718434  -0.441941738  -0.088388348
         13   0.088388348   0.618718434  -0.441941738
         14   0.088388348  -0.618718434   0.441941738
         15  -0.088388348   0.618718434   0.441941738
         16  -0.088388348  -0.618718434  -0.441941738
         17   0.088388348   0.441941738   0.618718434
         18   0.441941738   0.618718434   0.088388348
         19  -0.441941738  -0.618718434   0.088388348
         20   0.441941738  -0.618718434  -0.088388348
         21   0.088388348  -0.441941738  -0.618718434
         22   0.618718434   0.088388348   0.441941738
         23  -0.618718434   0.088388348  -0.441941738
         24  -0.618718434  -0.088388348   0.441941738
         25   0.088388348   0.441941738  -0.618718434
         26  -0.088388348  -0.441941738  -0.618718434
         27  -0.088388348   0.441941738   0.618718434
         28   0.088388348  -0.441941738   0.618718434
         29   0.441941738   0.088388348   0.618718434
         30  -0.088388348   0.441941738  -0.618718434
         31   0.441941738  -0.088388348  -0.618718434
         32  -0.441941738   0.088388348  -0.618718434
         33  -0.618718434  -0.441941738   0.088388348
         34  -0.441941738  -0.088388348  -0.618718434
         35  -0.618718434   0.441941738  -0.088388348
         36   0.618718434   0.441941738   0.088388348
         37  -0.088388348  -0.618718434   0.441941738
         38   0.441941738   0.088388348  -0.618718434
         39   0.088388348  -0.618718434  -0.441941738
         40   0.088388348   0.618718434   0.441941738
         41   0.441941738  -0.618718434   0.088388348
         42  -0.441941738  -0.618718434  -0.088388348
         43   0.441941738   0.618718434  -0.088388348
         44  -0.441941738   0.618718434   0.088388348
         45  -0.618718434   0.088388348   0.441941738
         46  -0.618718434  -0.088388348  -0.441941738
         47   0.618718434  -0.088388348   0.441941738
         48   0.618718434   0.088388348  -0.441941738

     Calculation of q =    0.0883883  -0.2651650   0.4419417
     [opt_tetra]  Optimized tetrahedron method is used.
 
     G-vector sticks info
     --------------------
     sticks:   dense  smooth     PW     G-vecs:    dense   smooth      PW
     Sum         559     283    121                 8801     3119     869
 
     Using Slab Decomposition
 

     Title: 
     Electron-phonon                                                            


     bravais-lattice index     =            0
     lattice parameter (alat)  =       5.3877  a.u.
     unit-cell volume          =     110.5871 (a.u.)^3
     number of atoms/cell      =            1
     number of atomic types    =            1
     number of electrons       =         3.00
     number of Kohn-Sham states=            6
     kinetic-energy cutoff     =      35.0000  Ry
     charge density cutoff     =     280.0000  Ry
     Exchange-correlation= PBE
                           (   1   4   3   4   0   0   0)

     celldm(1)=   5.387739  celldm(2)=   0.000000  celldm(3)=   0.000000
     celldm(4)=   0.000000  celldm(5)=   0.000000  celldm(6)=   0.000000

     crystal axes: (cart. coord. in units of alat)
               a(1) = (   0.000000   0.707107   0.707107 )  
               a(2) = (   0.707107   0.000000   0.707107 )  
               a(3) = (   0.707107   0.707107   0.000000 )  

     reciprocal axes: (cart. coord. in units 2 pi/alat)
               b(1) = ( -0.707107  0.707107  0.707107 )  
               b(2) = (  0.707107 -0.707107  0.707107 )  
               b(3) = (  0.707107  0.707107 -0.707107 )  


     PseudoPot. # 1 for Al read from file:
     ./Al.pbe-n-rrkjus_psl.0.1.UPF
     MD5 check sum: 6479f6627750700cef6db36d98bbe09a
     Pseudo is Ultrasoft + core correction, Zval =  3.0
     Generated using "atomic" code by A. Dal Corso  v.5.0.99 svn rev. 10869
     Using radial grid of 1135 points,  4 beta functions with: 
                l(1) =   0
                l(2) =   0
                l(3) =   1
                l(4) =   1
     Q(r) pseudized with 0 coefficients 


     atomic species   valence    mass     pseudopotential
     Al                3.00    26.98154     Al( 1.00)

     48 Sym. Ops., with inversion, found



   Cartesian axes

     site n.     atom                  positions (alat units)
         1        Al     tau(   1) = (   0.0000000   0.0000000   0.0000000  )

     number of k points=  8192 (tetrahedron method)

     Number of k-points >= 100: set verbosity='high' to print them.

     Dense  grid:     8801 G-vectors     FFT dimensions: (  30,  30,  30)

     Smooth grid:     3119 G-vectors     FFT dimensions: (  24,  24,  24)

     Estimated max dynamical RAM per process >       8.45 MB

     Estimated total dynamical RAM >     540.80 MB

     Check: negative core charge=   -0.000003

     The potential is recalculated from file :
     ./_ph0/pwscf.q_7/pwscf.save/charge-density

     Starting wfcs are    4 atomic +    2 random wfcs

     Band Structure Calculation
     Davidson diagonalization with overlap

     ethr =  3.33E-10,  avg # of iterations = 18.0

     total cpu time spent up to now is       12.2 secs

     End of band structure calculation

     Number of k-points >= 100: set verbosity='high' to print the bands.

     the Fermi energy is     8.0041 ev
 
     [dfpt_tetra]  Dos(E_F)[/Ry] :   0.5458592E+01

     Electron-phonon                                                            

     bravais-lattice index     =            0
     lattice parameter (alat)  =       5.3877  a.u.
     unit-cell volume          =     110.5871 (a.u.)^3
     number of atoms/cell      =            1
     number of atomic types    =            1
     kinetic-energy cut-off    =      35.0000  Ry
     charge density cut-off    =     280.0000  Ry
     convergence threshold     =      1.0E-12
     beta                      =       0.7000
     number of iterations used =            4
     Exchange-correlation= PBE
                           (   1   4   3   4   0   0   0)


     celldm(1)=    5.38774  celldm(2)=    0.00000  celldm(3)=    0.00000
     celldm(4)=    0.00000  celldm(5)=    0.00000  celldm(6)=    0.00000

     crystal axes: (cart. coord. in units of alat)
               a(1) = (  0.0000  0.7071  0.7071 )  
               a(2) = (  0.7071  0.0000  0.7071 )  
               a(3) = (  0.7071  0.7071  0.0000 )  

     reciprocal axes: (cart. coord. in units 2 pi/alat)
               b(1) = ( -0.7071  0.7071  0.7071 )  
               b(2) = (  0.7071 -0.7071  0.7071 )  
               b(3) = (  0.7071  0.7071 -0.7071 )  


     Atoms inside the unit cell: 

     Cartesian axes

     site n.  atom      mass           positions (alat units)
        1  Al     26.9815   tau(    1) = (    0.00000    0.00000    0.00000  )

     Computing dynamical matrix for 
                    q = (   0.0883883  -0.2651650   0.4419417 )
 
     No symmetry!

     G cutoff =  205.8787  (   8801 G-vectors)     FFT grid: ( 30, 30, 30)
     G cutoff =  102.9393  (   3119 G-vectors)  smooth grid: ( 24, 24, 24)
     number of k points=  8192

     PseudoPot. # 1 for Al read from file:
     ./Al.pbe-n-rrkjus_psl.0.1.UPF
     MD5 check sum: 6479f6627750700cef6db36d98bbe09a
     Pseudo is Ultrasoft + core correction, Zval =  3.0
     Generated using "atomic" code by A. Dal Corso  v.5.0.99 svn rev. 10869
     Using radial grid of 1135 points,  4 beta functions with: 
                l(1) =   0
                l(2) =   0
                l(3) =   1
                l(4) =   1
     Q(r) pseudized with 0 coefficients 



     Atomic displacements:
     There are    3 irreducible representations

     Representation     1      1 modes -  To be done

     Representation     2      1 modes -  To be done

     Representation     3      1 modes -  To be done


     PHONON       :     14.92s CPU     17.62s WALL

     Reading dVscf from file dv
     Reading dynamics matrix from file matdyn7

     Diagonalizing the dynamical matrix

     q = (    0.088388348  -0.265165043   0.441941738 ) 

 **************************************************************************
     freq (    1) =       5.077413 [THz] =     169.364258 [cm-1]
     freq (    2) =       6.387378 [THz] =     213.059986 [cm-1]
     freq (    3) =       8.905393 [THz] =     297.051933 [cm-1]
 **************************************************************************

     [elph_tetra]   Lowest band which contains FS :          2
     [elph_tetra]  Highest band which contains FS :          3
     [elph_tetra]    # of bands which contains FS :          2
 
     Tetrahedron method
     DOS =  2.729296 states/spin/Ry/Unit Cell at Ef=  8.004054 eV
     double delta at Ef = 14.077796
     lambda(    1)=  0.0560   gamma=    3.76 GHz
     lambda(    2)=  0.0753   gamma=    8.01 GHz
     lambda(    3)=  0.1926   gamma=   39.81 GHz
 
     Number of q in the star =   48
     List of q in the star:
          1   0.088388348  -0.265165043   0.441941738
          2   0.088388348   0.441941738  -0.265165043
          3   0.441941738   0.088388348  -0.265165043
          4  -0.265165043   0.441941738   0.088388348
          5   0.441941738  -0.265165043   0.088388348
          6  -0.265165043   0.088388348   0.441941738
          7  -0.265165043  -0.088388348   0.441941738
          8   0.265165043   0.088388348   0.441941738
          9   0.441941738   0.265165043   0.088388348
         10  -0.441941738   0.265165043  -0.088388348
         11   0.441941738  -0.265165043  -0.088388348
         12  -0.441941738  -0.265165043   0.088388348
         13  -0.088388348   0.441941738  -0.265165043
         14  -0.088388348  -0.441941738   0.265165043
         15   0.088388348   0.441941738   0.265165043
         16   0.088388348  -0.441941738  -0.265165043
         17  -0.088388348   0.265165043   0.441941738
         18   0.265165043   0.441941738  -0.088388348
         19  -0.265165043  -0.441941738  -0.088388348
         20   0.265165043  -0.441941738   0.088388348
         21  -0.088388348  -0.265165043  -0.441941738
         22   0.441941738  -0.088388348   0.265165043
         23  -0.441941738  -0.088388348  -0.265165043
         24  -0.441941738   0.088388348   0.265165043
         25  -0.088388348   0.265165043  -0.441941738
         26   0.088388348  -0.265165043  -0.441941738
         27   0.088388348   0.265165043   0.441941738
         28  -0.088388348  -0.265165043   0.441941738
         29   0.265165043  -0.088388348   0.441941738
         30   0.088388348   0.265165043  -0.441941738
         31   0.265165043   0.088388348  -0.441941738
         32  -0.265165043  -0.088388348  -0.441941738
         33  -0.441941738  -0.265165043  -0.088388348
         34  -0.265165043   0.088388348  -0.441941738
         35  -0.441941738   0.265165043   0.088388348
         36   0.441941738   0.265165043  -0.088388348
         37   0.088388348  -0.441941738   0.265165043
         38   0.265165043  -0.088388348  -0.441941738
         39  -0.088388348  -0.441941738  -0.265165043
         40  -0.088388348   0.441941738   0.265165043
         41   0.265165043  -0.441941738  -0.088388348
         42  -0.265165043  -0.441941738   0.088388348
         43   0.265165043   0.441941738   0.088388348
         44  -0.265165043   0.441941738  -0.088388348
         45  -0.441941738  -0.088388348   0.265165043
         46  -0.441941738   0.088388348  -0.265165043
         47   0.441941738   0.088388348   0.265165043
         48   0.441941738  -0.088388348  -0.265165043

     Calculation of q =   -0.6187184   0.0883883   0.0883883
     [opt_tetra]  Optimized tetrahedron method is used.
 
     G-vector sticks info
     --------------------
     sticks:   dense  smooth     PW     G-vecs:    dense   smooth      PW
     Sum         559     283    121                 8801     3119     869
 
     Using Slab Decomposition
 

     Title: 
     Electron-phonon                                                            


     bravais-lattice index     =            0
     lattice parameter (alat)  =       5.3877  a.u.
     unit-cell volume          =     110.5871 (a.u.)^3
     number of atoms/cell      =            1
     number of atomic types    =            1
     number of electrons       =         3.00
     number of Kohn-Sham states=            6
     kinetic-energy cutoff     =      35.0000  Ry
     charge density cutoff     =     280.0000  Ry
     Exchange-correlation= PBE
                           (   1   4   3   4   0   0   0)

     celldm(1)=   5.387739  celldm(2)=   0.000000  celldm(3)=   0.000000
     celldm(4)=   0.000000  celldm(5)=   0.000000  celldm(6)=   0.000000

     crystal axes: (cart. coord. in units of alat)
               a(1) = (   0.000000   0.707107   0.707107 )  
               a(2) = (   0.707107   0.000000   0.707107 )  
               a(3) = (   0.707107   0.707107   0.000000 )  

     reciprocal axes: (cart. coord. in units 2 pi/alat)
               b(1) = ( -0.707107  0.707107  0.707107 )  
               b(2) = (  0.707107 -0.707107  0.707107 )  
               b(3) = (  0.707107  0.707107 -0.707107 )  


     PseudoPot. # 1 for Al read from file:
     ./Al.pbe-n-rrkjus_psl.0.1.UPF
     MD5 check sum: 6479f6627750700cef6db36d98bbe09a
     Pseudo is Ultrasoft + core correction, Zval =  3.0
     Generated using "atomic" code by A. Dal Corso  v.5.0.99 svn rev. 10869
     Using radial grid of 1135 points,  4 beta functions with: 
                l(1) =   0
                l(2) =   0
                l(3) =   1
                l(4) =   1
     Q(r) pseudized with 0 coefficients 


     atomic species   valence    mass     pseudopotential
     Al                3.00    26.98154     Al( 1.00)

     48 Sym. Ops., with inversion, found



   Cartesian axes

     site n.     atom                  positions (alat units)
         1        Al     tau(   1) = (   0.0000000   0.0000000   0.0000000  )

     number of k points=  4352 (tetrahedron method)

     Number of k-points >= 100: set verbosity='high' to print them.

     Dense  grid:     8801 G-vectors     FFT dimensions: (  30,  30,  30)

     Smooth grid:     3119 G-vectors     FFT dimensions: (  24,  24,  24)

     Estimated max dynamical RAM per process >       6.33 MB

     Estimated total dynamical RAM >     404.93 MB

     Check: negative core charge=   -0.000003

     The potential is recalculated from file :
     ./_ph0/pwscf.q_8/pwscf.save/charge-density

     Starting wfcs are    4 atomic +    2 random wfcs

     Band Structure Calculation
     Davidson diagonalization with overlap

     ethr =  3.33E-10,  avg # of iterations = 18.0

     total cpu time spent up to now is       13.8 secs

     End of band structure calculation

     Number of k-points >= 100: set verbosity='high' to print the bands.

     the Fermi energy is     8.0041 ev
 
     [dfpt_tetra]  Dos(E_F)[/Ry] :   0.5458592E+01

     Electron-phonon                                                            

     bravais-lattice index     =            0
     lattice parameter (alat)  =       5.3877  a.u.
     unit-cell volume          =     110.5871 (a.u.)^3
     number of atoms/cell      =            1
     number of atomic types    =            1
     kinetic-energy cut-off    =      35.0000  Ry
     charge density cut-off    =     280.0000  Ry
     convergence threshold     =      1.0E-12
     beta                      =       0.7000
     number of iterations used =            4
     Exchange-correlation= PBE
                           (   1   4   3   4   0   0   0)


     celldm(1)=    5.38774  celldm(2)=    0.00000  celldm(3)=    0.00000
     celldm(4)=    0.00000  celldm(5)=    0.00000  celldm(6)=    0.00000

     crystal axes: (cart. coord. in units of alat)
               a(1) = (  0.0000  0.7071  0.7071 )  
               a(2) = (  0.7071  0.0000  0.7071 )  
               a(3) = (  0.7071  0.7071  0.0000 )  

     reciprocal axes: (cart. coord. in units 2 pi/alat)
               b(1) = ( -0.7071  0.7071  0.7071 )  
               b(2) = (  0.7071 -0.7071  0.7071 )  
               b(3) = (  0.7071  0.7071 -0.7071 )  


     Atoms inside the unit cell: 

     Cartesian axes

     site n.  atom      mass           positions (alat units)
        1  Al     26.9815   tau(    1) = (    0.00000    0.00000    0.00000  )

     Computing dynamical matrix for 
                    q = (  -0.6187184   0.0883883   0.0883883 )
 
      2 Sym.Ops. (no q -> -q+G )


     G cutoff =  205.8787  (   8801 G-vectors)     FFT grid: ( 30, 30, 30)
     G cutoff =  102.9393  (   3119 G-vectors)  smooth grid: ( 24, 24, 24)
     number of k points=  4352

     PseudoPot. # 1 for Al read from file:
     ./Al.pbe-n-rrkjus_psl.0.1.UPF
     MD5 check sum: 6479f6627750700cef6db36d98bbe09a
     Pseudo is Ultrasoft + core correction, Zval =  3.0
     Generated using "atomic" code by A. Dal Corso  v.5.0.99 svn rev. 10869
     Using radial grid of 1135 points,  4 beta functions with: 
                l(1) =   0
                l(2) =   0
                l(3) =   1
                l(4) =   1
     Q(r) pseudized with 0 coefficients 



     Atomic displacements:
     There are    3 irreducible representations

     Representation     1      1 modes -  To be done

     Representation     2      1 modes -  To be done

     Representation     3      1 modes -  To be done


     PHONON       :     17.08s CPU     20.26s WALL

     Reading dVscf from file dv
     Reading dynamics matrix from file matdyn8

     Diagonalizing the dynamical matrix

     q = (   -0.618718434   0.088388348   0.088388348 ) 

 **************************************************************************
     freq (    1) =       5.830306 [THz] =     194.478073 [cm-1]
     freq (    2) =       6.443043 [THz] =     214.916790 [cm-1]
     freq (    3) =       9.466185 [THz] =     315.757952 [cm-1]
 **************************************************************************

     [elph_tetra]   Lowest band which contains FS :          2
     [elph_tetra]  Highest band which contains FS :          3
     [elph_tetra]    # of bands which contains FS :          2
 
     Tetrahedron method
     DOS =  2.729296 states/spin/Ry/Unit Cell at Ef=  8.004054 eV
     double delta at Ef = 11.989427
     lambda(    1)=  0.0870   gamma=    7.71 GHz
     lambda(    2)=  0.0928   gamma=   10.04 GHz
     lambda(    3)=  0.1582   gamma=   36.95 GHz
 
     Number of q in the star =   24
     List of q in the star:
          1  -0.618718434   0.088388348   0.088388348
          2   0.088388348  -0.618718434   0.088388348
          3   0.088388348   0.088388348  -0.618718434
          4   0.088388348   0.618718434   0.088388348
          5  -0.088388348  -0.618718434   0.088388348
          6   0.088388348  -0.088388348  -0.618718434
          7  -0.088388348  -0.088388348   0.618718434
          8   0.088388348   0.088388348   0.618718434
          9  -0.088388348   0.088388348  -0.618718434
         10   0.618718434   0.088388348   0.088388348
         11   0.618718434  -0.088388348  -0.088388348
         12  -0.618718434   0.088388348  -0.088388348
         13  -0.618718434  -0.088388348   0.088388348
         14   0.618718434  -0.088388348   0.088388348
         15  -0.088388348   0.088388348   0.618718434
         16   0.088388348  -0.088388348   0.618718434
         17  -0.088388348  -0.088388348  -0.618718434
         18   0.618718434   0.088388348  -0.088388348
         19   0.088388348   0.618718434  -0.088388348
         20  -0.088388348   0.618718434   0.088388348
         21  -0.088388348  -0.618718434  -0.088388348
         22  -0.618718434  -0.088388348  -0.088388348
         23   0.088388348  -0.618718434  -0.088388348
         24  -0.088388348   0.618718434  -0.088388348

     Calculation of q =    0.2651650   0.2651650   0.2651650
     [opt_tetra]  Optimized tetrahedron method is used.
 
     G-vector sticks info
     --------------------
     sticks:   dense  smooth     PW     G-vecs:    dense   smooth      PW
     Sum         559     283    109                 8801     3119     749
 
     Using Slab Decomposition
 

     Title: 
     Electron-phonon                                                            


     bravais-lattice index     =            0
     lattice parameter (alat)  =       5.3877  a.u.
     unit-cell volume          =     110.5871 (a.u.)^3
     number of atoms/cell      =            1
     number of atomic types    =            1
     number of electrons       =         3.00
     number of Kohn-Sham states=            6
     kinetic-energy cutoff     =      35.0000  Ry
     charge density cutoff     =     280.0000  Ry
     Exchange-correlation= PBE
                           (   1   4   3   4   0   0   0)

     celldm(1)=   5.387739  celldm(2)=   0.000000  celldm(3)=   0.000000
     celldm(4)=   0.000000  celldm(5)=   0.000000  celldm(6)=   0.000000

     crystal axes: (cart. coord. in units of alat)
               a(1) = (   0.000000   0.707107   0.707107 )  
               a(2) = (   0.707107   0.000000   0.707107 )  
               a(3) = (   0.707107   0.707107   0.000000 )  

     reciprocal axes: (cart. coord. in units 2 pi/alat)
               b(1) = ( -0.707107  0.707107  0.707107 )  
               b(2) = (  0.707107 -0.707107  0.707107 )  
               b(3) = (  0.707107  0.707107 -0.707107 )  


     PseudoPot. # 1 for Al read from file:
     ./Al.pbe-n-rrkjus_psl.0.1.UPF
     MD5 check sum: 6479f6627750700cef6db36d98bbe09a
     Pseudo is Ultrasoft + core correction, Zval =  3.0
     Generated using "atomic" code by A. Dal Corso  v.5.0.99 svn rev. 10869
     Using radial grid of 1135 points,  4 beta functions with: 
                l(1) =   0
                l(2) =   0
                l(3) =   1
                l(4) =   1
     Q(r) pseudized with 0 coefficients 


     atomic species   valence    mass     pseudopotential
     Al                3.00    26.98154     Al( 1.00)

     48 Sym. Ops., with inversion, found



   Cartesian axes

     site n.     atom                  positions (alat units)
         1        Al     tau(   1) = (   0.0000000   0.0000000   0.0000000  )

     number of k points=  1632 (tetrahedron method)

     Number of k-points >= 100: set verbosity='high' to print them.

     Dense  grid:     8801 G-vectors     FFT dimensions: (  30,  30,  30)

     Smooth grid:     3119 G-vectors     FFT dimensions: (  24,  24,  24)

     Estimated max dynamical RAM per process >       4.83 MB

     Estimated total dynamical RAM >     309.39 MB

     Check: negative core charge=   -0.000003

     The potential is recalculated from file :
     ./_ph0/pwscf.q_9/pwscf.save/charge-density

     Starting wfcs are    4 atomic +    2 random wfcs

     Band Structure Calculation
     Davidson diagonalization with overlap

     ethr =  3.33E-10,  avg # of iterations = 18.4

     total cpu time spent up to now is       14.6 secs

     End of band structure calculation

     Number of k-points >= 100: set verbosity='high' to print the bands.

     the Fermi energy is     8.0041 ev
 
     [dfpt_tetra]  Dos(E_F)[/Ry] :   0.5458592E+01

     Electron-phonon                                                            

     bravais-lattice index     =            0
     lattice parameter (alat)  =       5.3877  a.u.
     unit-cell volume          =     110.5871 (a.u.)^3
     number of atoms/cell      =            1
     number of atomic types    =            1
     kinetic-energy cut-off    =      35.0000  Ry
     charge density cut-off    =     280.0000  Ry
     convergence threshold     =      1.0E-12
     beta                      =       0.7000
     number of iterations used =            4
     Exchange-correlation= PBE
                           (   1   4   3   4   0   0   0)


     celldm(1)=    5.38774  celldm(2)=    0.00000  celldm(3)=    0.00000
     celldm(4)=    0.00000  celldm(5)=    0.00000  celldm(6)=    0.00000

     crystal axes: (cart. coord. in units of alat)
               a(1) = (  0.0000  0.7071  0.7071 )  
               a(2) = (  0.7071  0.0000  0.7071 )  
               a(3) = (  0.7071  0.7071  0.0000 )  

     reciprocal axes: (cart. coord. in units 2 pi/alat)
               b(1) = ( -0.7071  0.7071  0.7071 )  
               b(2) = (  0.7071 -0.7071  0.7071 )  
               b(3) = (  0.7071  0.7071 -0.7071 )  


     Atoms inside the unit cell: 

     Cartesian axes

     site n.  atom      mass           positions (alat units)
        1  Al     26.9815   tau(    1) = (    0.00000    0.00000    0.00000  )

     Computing dynamical matrix for 
                    q = (   0.2651650   0.2651650   0.2651650 )
 
      6 Sym.Ops. (no q -> -q+G )


     G cutoff =  205.8787  (   8801 G-vectors)     FFT grid: ( 30, 30, 30)
     G cutoff =  102.9393  (   3119 G-vectors)  smooth grid: ( 24, 24, 24)
     number of k points=  1632

     PseudoPot. # 1 for Al read from file:
     ./Al.pbe-n-rrkjus_psl.0.1.UPF
     MD5 check sum: 6479f6627750700cef6db36d98bbe09a
     Pseudo is Ultrasoft + core correction, Zval =  3.0
     Generated using "atomic" code by A. Dal Corso  v.5.0.99 svn rev. 10869
     Using radial grid of 1135 points,  4 beta functions with: 
                l(1) =   0
                l(2) =   0
                l(3) =   1
                l(4) =   1
     Q(r) pseudized with 0 coefficients 



     Atomic displacements:
     There are    2 irreducible representations

     Representation     1      1 modes -  To be done

     Representation     2      2 modes -  To be done


     PHONON       :     18.27s CPU     21.81s WALL

     Reading dVscf from file dv
     Reading dynamics matrix from file matdyn9

     Diagonalizing the dynamical matrix

     q = (    0.265165043   0.265165043   0.265165043 ) 

 **************************************************************************
     freq (    1) =       4.294970 [THz] =     143.264789 [cm-1]
     freq (    2) =       4.294970 [THz] =     143.264789 [cm-1]
     freq (    3) =       9.013771 [THz] =     300.667050 [cm-1]
 **************************************************************************

     [elph_tetra]   Lowest band which contains FS :          2
     [elph_tetra]  Highest band which contains FS :          3
     [elph_tetra]    # of bands which contains FS :          2
 
     Tetrahedron method
     DOS =  2.729296 states/spin/Ry/Unit Cell at Ef=  8.004054 eV
     double delta at Ef = 13.465076
     lambda(    1)=  0.0388   gamma=    1.86 GHz
     lambda(    2)=  0.0388   gamma=    1.86 GHz
     lambda(    3)=  0.2050   gamma=   43.42 GHz
 
     Number of q in the star =    8
     List of q in the star:
          1   0.265165043   0.265165043   0.265165043
          2   0.265165043  -0.265165043   0.265165043
          3  -0.265165043   0.265165043   0.265165043
          4  -0.265165043  -0.265165043  -0.265165043
          5   0.265165043   0.265165043  -0.265165043
          6  -0.265165043  -0.265165043   0.265165043
          7  -0.265165043   0.265165043  -0.265165043
          8   0.265165043  -0.265165043  -0.265165043

     Calculation of q =   -0.2651650  -0.2651650   0.7954951
     [opt_tetra]  Optimized tetrahedron method is used.
 
     G-vector sticks info
     --------------------
     sticks:   dense  smooth     PW     G-vecs:    dense   smooth      PW
     Sum         559     283    121                 8801     3119     941
 
     Using Slab Decomposition
 

     Title: 
     Electron-phonon                                                            


     bravais-lattice index     =            0
     lattice parameter (alat)  =       5.3877  a.u.
     unit-cell volume          =     110.5871 (a.u.)^3
     number of atoms/cell      =            1
     number of atomic types    =            1
     number of electrons       =         3.00
     number of Kohn-Sham states=            6
     kinetic-energy cutoff     =      35.0000  Ry
     charge density cutoff     =     280.0000  Ry
     Exchange-correlation= PBE
                           (   1   4   3   4   0   0   0)

     celldm(1)=   5.387739  celldm(2)=   0.000000  celldm(3)=   0.000000
     celldm(4)=   0.000000  celldm(5)=   0.000000  celldm(6)=   0.000000

     crystal axes: (cart. coord. in units of alat)
               a(1) = (   0.000000   0.707107   0.707107 )  
               a(2) = (   0.707107   0.000000   0.707107 )  
               a(3) = (   0.707107   0.707107   0.000000 )  

     reciprocal axes: (cart. coord. in units 2 pi/alat)
               b(1) = ( -0.707107  0.707107  0.707107 )  
               b(2) = (  0.707107 -0.707107  0.707107 )  
               b(3) = (  0.707107  0.707107 -0.707107 )  


     PseudoPot. # 1 for Al read from file:
     ./Al.pbe-n-rrkjus_psl.0.1.UPF
     MD5 check sum: 6479f6627750700cef6db36d98bbe09a
     Pseudo is Ultrasoft + core correction, Zval =  3.0
     Generated using "atomic" code by A. Dal Corso  v.5.0.99 svn rev. 10869
     Using radial grid of 1135 points,  4 beta functions with: 
                l(1) =   0
                l(2) =   0
                l(3) =   1
                l(4) =   1
     Q(r) pseudized with 0 coefficients 


     atomic species   valence    mass     pseudopotential
     Al                3.00    26.98154     Al( 1.00)

     48 Sym. Ops., with inversion, found



   Cartesian axes

     site n.     atom                  positions (alat units)
         1        Al     tau(   1) = (   0.0000000   0.0000000   0.0000000  )

     number of k points=  4352 (tetrahedron method)

     Number of k-points >= 100: set verbosity='high' to print them.

     Dense  grid:     8801 G-vectors     FFT dimensions: (  30,  30,  30)

     Smooth grid:     3119 G-vectors     FFT dimensions: (  24,  24,  24)

     Estimated max dynamical RAM per process >       6.33 MB

     Estimated total dynamical RAM >     405.35 MB

     Check: negative core charge=   -0.000003

     The potential is recalculated from file :
     ./_ph0/pwscf.q_10/pwscf.save/charge-density

     Starting wfcs are    4 atomic +    2 random wfcs

     Band Structure Calculation
     Davidson diagonalization with overlap

     ethr =  3.33E-10,  avg # of iterations = 18.1

     total cpu time spent up to now is       16.2 secs

     End of band structure calculation

     Number of k-points >= 100: set verbosity='high' to print the bands.

     the Fermi energy is     8.0041 ev
 
     [dfpt_tetra]  Dos(E_F)[/Ry] :   0.5458592E+01

     Electron-phonon                                                            

     bravais-lattice index     =            0
     lattice parameter (alat)  =       5.3877  a.u.
     unit-cell volume          =     110.5871 (a.u.)^3
     number of atoms/cell      =            1
     number of atomic types    =            1
     kinetic-energy cut-off    =      35.0000  Ry
     charge density cut-off    =     280.0000  Ry
     convergence threshold     =      1.0E-12
     beta                      =       0.7000
     number of iterations used =            4
     Exchange-correlation= PBE
                           (   1   4   3   4   0   0   0)


     celldm(1)=    5.38774  celldm(2)=    0.00000  celldm(3)=    0.00000
     celldm(4)=    0.00000  celldm(5)=    0.00000  celldm(6)=    0.00000

     crystal axes: (cart. coord. in units of alat)
               a(1) = (  0.0000  0.7071  0.7071 )  
               a(2) = (  0.7071  0.0000  0.7071 )  
               a(3) = (  0.7071  0.7071  0.0000 )  

     reciprocal axes: (cart. coord. in units 2 pi/alat)
               b(1) = ( -0.7071  0.7071  0.7071 )  
               b(2) = (  0.7071 -0.7071  0.7071 )  
               b(3) = (  0.7071  0.7071 -0.7071 )  


     Atoms inside the unit cell: 

     Cartesian axes

     site n.  atom      mass           positions (alat units)
        1  Al     26.9815   tau(    1) = (    0.00000    0.00000    0.00000  )

     Computing dynamical matrix for 
                    q = (  -0.2651650  -0.2651650   0.7954951 )
 
      2 Sym.Ops. (no q -> -q+G )


     G cutoff =  205.8787  (   8801 G-vectors)     FFT grid: ( 30, 30, 30)
     G cutoff =  102.9393  (   3119 G-vectors)  smooth grid: ( 24, 24, 24)
     number of k points=  4352

     PseudoPot. # 1 for Al read from file:
     ./Al.pbe-n-rrkjus_psl.0.1.UPF
     MD5 check sum: 6479f6627750700cef6db36d98bbe09a
     Pseudo is Ultrasoft + core correction, Zval =  3.0
     Generated using "atomic" code by A. Dal Corso  v.5.0.99 svn rev. 10869
     Using radial grid of 1135 points,  4 beta functions with: 
                l(1) =   0
                l(2) =   0
                l(3) =   1
                l(4) =   1
     Q(r) pseudized with 0 coefficients 



     Atomic displacements:
     There are    3 irreducible representations

     Representation     1      1 modes -  To be done

     Representation     2      1 modes -  To be done

     Representation     3      1 modes -  To be done


     PHONON       :     20.11s CPU     23.98s WALL

     Reading dVscf from file dv
     Reading dynamics matrix from file matdyn10

     Diagonalizing the dynamical matrix

     q = (   -0.265165043  -0.265165043   0.795495129 ) 

 **************************************************************************
     freq (    1) =       5.347148 [THz] =     178.361654 [cm-1]
     freq (    2) =       7.550824 [THz] =     251.868386 [cm-1]
     freq (    3) =       9.115047 [THz] =     304.045234 [cm-1]
 **************************************************************************

     [elph_tetra]   Lowest band which contains FS :          2
     [elph_tetra]  Highest band which contains FS :          3
     [elph_tetra]    # of bands which contains FS :          2
 
     Tetrahedron method
     DOS =  2.729296 states/spin/Ry/Unit Cell at Ef=  8.004054 eV
     double delta at Ef = 12.952990
     lambda(    1)=  0.0427   gamma=    3.18 GHz
     lambda(    2)=  0.1319   gamma=   19.60 GHz
     lambda(    3)=  0.1584   gamma=   34.31 GHz
 
     Number of q in the star =   24
     List of q in the star:
          1  -0.265165043  -0.265165043   0.795495129
          2   0.795495129  -0.265165043  -0.265165043
          3  -0.265165043   0.795495129  -0.265165043
          4  -0.265165043   0.265165043   0.795495129
          5   0.265165043  -0.265165043   0.795495129
          6   0.795495129   0.265165043  -0.265165043
          7  -0.795495129   0.265165043   0.265165043
          8   0.795495129  -0.265165043   0.265165043
          9  -0.795495129  -0.265165043  -0.265165043
         10   0.265165043   0.795495129  -0.265165043
         11   0.265165043  -0.795495129   0.265165043
         12  -0.265165043   0.795495129   0.265165043
         13  -0.265165043  -0.795495129  -0.265165043
         14   0.265165043   0.265165043   0.795495129
         15   0.265165043   0.795495129   0.265165043
         16  -0.265165043  -0.795495129   0.265165043
         17   0.265165043  -0.795495129  -0.265165043
         18   0.265165043  -0.265165043  -0.795495129
         19   0.795495129   0.265165043   0.265165043
         20  -0.795495129   0.265165043  -0.265165043
         21  -0.795495129  -0.265165043   0.265165043
         22   0.265165043   0.265165043  -0.795495129
         23  -0.265165043  -0.265165043  -0.795495129
         24  -0.265165043   0.265165043  -0.795495129
 
     init_run     :      0.98s CPU      1.23s WALL (      10 calls)
     electrons    :     12.01s CPU     12.87s WALL (      10 calls)

     Called by init_run:
     wfcinit      :      0.00s CPU      0.02s WALL (      10 calls)
     potinit      :      0.29s CPU      0.51s WALL (      10 calls)
     hinit0       :      0.14s CPU      0.14s WALL (      10 calls)

     Called by electrons:
     c_bands      :     11.56s CPU     12.41s WALL (      10 calls)
     v_of_rho     :      0.10s CPU      0.11s WALL (      11 calls)
     newd         :      0.13s CPU      0.13s WALL (      11 calls)

     Called by c_bands:
     init_us_2    :      0.17s CPU      0.17s WALL (    2838 calls)
     cegterg      :      7.48s CPU      7.67s WALL (     956 calls)

     Called by *egterg:
     cdiaghg      :      1.16s CPU      1.19s WALL (   14819 calls)
     h_psi        :      5.79s CPU      5.94s WALL (   15775 calls)
     s_psi        :      0.09s CPU      0.09s WALL (   15775 calls)
     g_psi        :      0.06s CPU      0.06s WALL (   14103 calls)

     Called by h_psi:
     h_psi:calbec :      0.12s CPU      0.12s WALL (   15775 calls)
     vloc_psi     :      5.47s CPU      5.60s WALL (   15775 calls)
     add_vuspsi   :      0.10s CPU      0.10s WALL (   15775 calls)

     General routines
     calbec       :      0.13s CPU      0.14s WALL (   19713 calls)
     fft          :      0.08s CPU      0.08s WALL (     322 calls)
     ffts         :      0.04s CPU      0.04s WALL (    1184 calls)
     fftw         :      4.90s CPU      5.01s WALL (  154480 calls)
     interpolate  :      0.03s CPU      0.03s WALL (      80 calls)
     davcio       :      0.00s CPU      0.00s WALL (      30 calls)
 
     Parallel routines
 
     PHONON       :     20.35s CPU     24.43s WALL

     INITIALIZATION: 
     phq_setup    :      0.49s CPU      0.60s WALL (      10 calls)
     phq_init     :      2.15s CPU      2.16s WALL (      10 calls)
 
     phq_init     :      2.15s CPU      2.16s WALL (      10 calls)
     set_drhoc    :      0.03s CPU      0.03s WALL (      10 calls)
     init_vloc    :      0.01s CPU      0.01s WALL (      11 calls)
     init_us_1    :      0.06s CPU      0.06s WALL (      11 calls)
     init_us_2    :      0.17s CPU      0.17s WALL (    2838 calls)
     newd         :      0.13s CPU      0.13s WALL (      11 calls)
     dvanqq       :      1.08s CPU      1.08s WALL (      20 calls)
     drho         :      1.49s CPU      1.49s WALL (      10 calls)
     drhous       :      0.60s CPU      0.60s WALL (      10 calls)
     nldyntot     :      0.01s CPU      0.01s WALL (      10 calls)
     newdq        :      0.44s CPU      0.44s WALL (      28 calls)
     adddvscf     :      0.01s CPU      0.01s WALL (    1074 calls)
     com_dvloc    :      0.06s CPU      0.06s WALL (    1104 calls)
                                        0.00s GPU  (    1104 calls)
 
     dvqpsi_us    :      0.71s CPU      0.73s WALL (    1074 calls)
                                        0.00s GPU  (    1074 calls)
     dvqpsi_us_on :      0.09s CPU      0.10s WALL (    1074 calls)
 
     add_vuspsi   :      0.10s CPU      0.10s WALL (   15775 calls)
     addusdbec    :      0.02s CPU      0.02s WALL (    1074 calls)
 
 
      Electron-phonon coupling
     elphon       :      1.89s CPU      1.92s WALL (      10 calls)
     elphel       :      1.01s CPU      1.04s WALL (      28 calls)
 
      General routines
     calbec       :      0.13s CPU      0.14s WALL (   19713 calls)
     fft          :      0.08s CPU      0.08s WALL (     322 calls)
     ffts         :      0.04s CPU      0.04s WALL (    1184 calls)
     fftw         :      4.90s CPU      5.01s WALL (  154480 calls)
     davcio       :      0.00s CPU      0.00s WALL (      30 calls)
 
      Additional routines
     h_psi_bgrp   :      5.82s CPU      5.96s WALL (   15775 calls)
     h_psi        :      5.79s CPU      5.94s WALL (   15775 calls)
     h_psi:pot    :      5.74s CPU      5.88s WALL (   15775 calls)
     h_psi:calbec :      0.12s CPU      0.12s WALL (   15775 calls)
     s_psi_bgrp   :      0.14s CPU      0.14s WALL (   15775 calls)
     s_psi        :      0.09s CPU      0.09s WALL (   15775 calls)
 
 
     PHONON       :     20.35s CPU     24.43s WALL

 
   This run was terminated on:   2:39:35  13Mar2026            

=------------------------------------------------------------------------------=
   JOB DONE.
=------------------------------------------------------------------------------=
