
     Program PHONON v.7.4.1 starts on 13Mar2026 at  2:38:38 

     This program is part of the open-source Quantum ESPRESSO suite
     for quantum simulation of materials; please cite
         "P. Giannozzi et al., J. Phys.:Condens. Matter 21 395502 (2009);
         "P. Giannozzi et al., J. Phys.:Condens. Matter 29 465901 (2017);
         "P. Giannozzi et al., J. Chem. Phys. 152 154105 (2020);
          URL http://www.quantum-espresso.org", 
     in publications or presentations arising from this work. More details at
     http://www.quantum-espresso.org/quote

     Parallel version (MPI & OpenMP), running on      64 processor cores
     Number of MPI processes:                64
     Threads/MPI process:                     1

     MPI processes distributed on     1 nodes
     225703 MiB available memory on the printing compute node when the environment starts
 
     Reading input from ph.in

     Reading xml data from directory:

     ./pwscf.save/
 
     K-points division:     npool     =      64
     Subspace diagonalization in iterative solution of the eigenvalue problem:
     a serial algorithm will be used


     IMPORTANT: XC functional enforced from input :
     Exchange-correlation= PBE
                           (   1   4   3   4   0   0   0)
     Any further DFT definition will be discarded
     Please, verify this is what you really want

 
     G-vector sticks info
     --------------------
     sticks:   dense  smooth     PW     G-vecs:    dense   smooth      PW
     Sum         559     283     91                 8801     3119     609
 
     Using Slab Decomposition
 

     Check: negative core charge=   -0.000003
     Message from routine divide_et_impera:
     suboptimal parallelization: some nodes have no k-points
     Reading collected, re-writing distributed wavefunctions in ./


     Dynamical matrices for ( 4, 4, 4)  uniform grid of q-points
     With a half shift
     (  10 q-points):
       N         xq(1)         xq(2)         xq(3) 
       1   0.088388348   0.088388348   0.088388348
       2   0.265165043   0.265165043  -0.088388348
       3  -0.265165043  -0.265165043   0.441941738
       4  -0.088388348  -0.088388348   0.265165043
       5   0.441941738   0.088388348   0.088388348
       6  -0.088388348  -0.441941738   0.618718434
       7   0.088388348  -0.265165043   0.441941738
       8  -0.618718434   0.088388348   0.088388348
       9   0.265165043   0.265165043   0.265165043
      10  -0.265165043  -0.265165043   0.795495129
     Because shifted q grid is used, q2r will not work !

     Number and degeneracy of irreps per q-point
       N         xq(1)         xq(2)         xq(3)   N irreps
       1   0.088388348   0.088388348   0.088388348       2
        1   2
       2   0.265165043   0.265165043  -0.088388348       3
     No degeneracy
       3  -0.265165043  -0.265165043   0.441941738       3
     No degeneracy
       4  -0.088388348  -0.088388348   0.265165043       3
     No degeneracy
       5   0.441941738   0.088388348   0.088388348       3
     No degeneracy
       6  -0.088388348  -0.441941738   0.618718434       3
     No degeneracy
       7   0.088388348  -0.265165043   0.441941738       3
     No degeneracy
       8  -0.618718434   0.088388348   0.088388348       3
     No degeneracy
       9   0.265165043   0.265165043   0.265165043       2
        1   2
      10  -0.265165043  -0.265165043   0.795495129       3
     No degeneracy

     Saving dvscf to file. Distribute only q points, not irreducible representations.

     Calculation of q =    0.0883883   0.0883883   0.0883883
     [opt_tetra]  Optimized tetrahedron method is used.
 
     G-vector sticks info
     --------------------
     sticks:   dense  smooth     PW     G-vecs:    dense   smooth      PW
     Sum         559     283     97                 8801     3119     645
 
     Using Slab Decomposition
 

     Title: 
     Phonon                                                                     


     bravais-lattice index     =            0
     lattice parameter (alat)  =       5.3877  a.u.
     unit-cell volume          =     110.5871 (a.u.)^3
     number of atoms/cell      =            1
     number of atomic types    =            1
     number of electrons       =         3.00
     number of Kohn-Sham states=            6
     kinetic-energy cutoff     =      35.0000  Ry
     charge density cutoff     =     280.0000  Ry
     Exchange-correlation= PBE
                           (   1   4   3   4   0   0   0)

     celldm(1)=   5.387739  celldm(2)=   0.000000  celldm(3)=   0.000000
     celldm(4)=   0.000000  celldm(5)=   0.000000  celldm(6)=   0.000000

     crystal axes: (cart. coord. in units of alat)
               a(1) = (   0.000000   0.707107   0.707107 )  
               a(2) = (   0.707107   0.000000   0.707107 )  
               a(3) = (   0.707107   0.707107   0.000000 )  

     reciprocal axes: (cart. coord. in units 2 pi/alat)
               b(1) = ( -0.707107  0.707107  0.707107 )  
               b(2) = (  0.707107 -0.707107  0.707107 )  
               b(3) = (  0.707107  0.707107 -0.707107 )  


     PseudoPot. # 1 for Al read from file:
     ./Al.pbe-n-rrkjus_psl.0.1.UPF
     MD5 check sum: 6479f6627750700cef6db36d98bbe09a
     Pseudo is Ultrasoft + core correction, Zval =  3.0
     Generated using "atomic" code by A. Dal Corso  v.5.0.99 svn rev. 10869
     Using radial grid of 1135 points,  4 beta functions with: 
                l(1) =   0
                l(2) =   0
                l(3) =   1
                l(4) =   1
     Q(r) pseudized with 0 coefficients 


     atomic species   valence    mass     pseudopotential
     Al                3.00    26.98154     Al( 1.00)

     48 Sym. Ops., with inversion, found



   Cartesian axes

     site n.     atom                  positions (alat units)
         1        Al     tau(   1) = (   0.0000000   0.0000000   0.0000000  )

     number of k points=   240 (tetrahedron method)

     Number of k-points >= 100: set verbosity='high' to print them.

     Dense  grid:     8801 G-vectors     FFT dimensions: (  30,  30,  30)

     Smooth grid:     3119 G-vectors     FFT dimensions: (  24,  24,  24)

     Estimated max dynamical RAM per process >       4.05 MB

     Estimated total dynamical RAM >     258.99 MB

     Check: negative core charge=   -0.000003

     The potential is recalculated from file :
     ./_ph0/pwscf.q_1/pwscf.save/charge-density

     Starting wfcs are    4 atomic +    2 random wfcs

     Band Structure Calculation
     Davidson diagonalization with overlap

     ethr =  3.33E-10,  avg # of iterations = 17.9

     total cpu time spent up to now is        0.3 secs

     End of band structure calculation

     Number of k-points >= 100: set verbosity='high' to print the bands.

     the Fermi energy is     7.9299 ev
 
     [dfpt_tetra]  Dos(E_F)[/Ry] :   0.4128430E+01

     Phonon                                                                     

     bravais-lattice index     =            0
     lattice parameter (alat)  =       5.3877  a.u.
     unit-cell volume          =     110.5871 (a.u.)^3
     number of atoms/cell      =            1
     number of atomic types    =            1
     kinetic-energy cut-off    =      35.0000  Ry
     charge density cut-off    =     280.0000  Ry
     convergence threshold     =      1.0E-15
     beta                      =       0.3000
     number of iterations used =            4
     Exchange-correlation= PBE
                           (   1   4   3   4   0   0   0)


     celldm(1)=    5.38774  celldm(2)=    0.00000  celldm(3)=    0.00000
     celldm(4)=    0.00000  celldm(5)=    0.00000  celldm(6)=    0.00000

     crystal axes: (cart. coord. in units of alat)
               a(1) = (  0.0000  0.7071  0.7071 )  
               a(2) = (  0.7071  0.0000  0.7071 )  
               a(3) = (  0.7071  0.7071  0.0000 )  

     reciprocal axes: (cart. coord. in units 2 pi/alat)
               b(1) = ( -0.7071  0.7071  0.7071 )  
               b(2) = (  0.7071 -0.7071  0.7071 )  
               b(3) = (  0.7071  0.7071 -0.7071 )  


     Atoms inside the unit cell: 

     Cartesian axes

     site n.  atom      mass           positions (alat units)
        1  Al     26.9815   tau(    1) = (    0.00000    0.00000    0.00000  )

     Computing dynamical matrix for 
                    q = (   0.0883883   0.0883883   0.0883883 )
 
      6 Sym.Ops. (no q -> -q+G )


     G cutoff =  205.8787  (   8801 G-vectors)     FFT grid: ( 30, 30, 30)
     G cutoff =  102.9393  (   3119 G-vectors)  smooth grid: ( 24, 24, 24)
     number of k points=   240

     PseudoPot. # 1 for Al read from file:
     ./Al.pbe-n-rrkjus_psl.0.1.UPF
     MD5 check sum: 6479f6627750700cef6db36d98bbe09a
     Pseudo is Ultrasoft + core correction, Zval =  3.0
     Generated using "atomic" code by A. Dal Corso  v.5.0.99 svn rev. 10869
     Using radial grid of 1135 points,  4 beta functions with: 
                l(1) =   0
                l(2) =   0
                l(3) =   1
                l(4) =   1
     Q(r) pseudized with 0 coefficients 



     Atomic displacements:
     There are    2 irreducible representations

     Representation     1      1 modes -  To be done

     Representation     2      2 modes -  To be done


     Message from routine init_vloc:
     Interpolation table for Vloc re-allocated

     Alpha used in Ewald sum =   2.8000
     PHONON       :      0.94s CPU      1.37s WALL



     Representation #   1 mode #   1

     Self-consistent Calculation

      iter #   1 total cpu time :     1.5 secs   av.it.:   1.9
      thresh= 1.000E-02 alpha_mix =  0.300 |ddv_scf|^2 =  1.614E-01

      iter #   2 total cpu time :     1.6 secs   av.it.:   2.6
      thresh= 1.000E-02 alpha_mix =  0.300 |ddv_scf|^2 =  1.576E+01

      iter #   3 total cpu time :     1.6 secs   av.it.:   2.6
      thresh= 1.000E-02 alpha_mix =  0.300 |ddv_scf|^2 =  1.520E-05

      iter #   4 total cpu time :     1.7 secs   av.it.:   2.5
      thresh= 3.899E-04 alpha_mix =  0.300 |ddv_scf|^2 =  1.907E-07

      iter #   5 total cpu time :     1.8 secs   av.it.:   2.8
      thresh= 4.366E-05 alpha_mix =  0.300 |ddv_scf|^2 =  4.647E-09

      iter #   6 total cpu time :     1.8 secs   av.it.:   2.7
      thresh= 6.817E-06 alpha_mix =  0.300 |ddv_scf|^2 =  1.539E-07

      iter #   7 total cpu time :     1.9 secs   av.it.:   1.5
      thresh= 3.924E-05 alpha_mix =  0.300 |ddv_scf|^2 =  2.002E-10

      iter #   8 total cpu time :     2.0 secs   av.it.:   2.9
      thresh= 1.415E-06 alpha_mix =  0.300 |ddv_scf|^2 =  1.443E-11

      iter #   9 total cpu time :     2.1 secs   av.it.:   2.9
      thresh= 3.798E-07 alpha_mix =  0.300 |ddv_scf|^2 =  1.322E-12

      iter #  10 total cpu time :     2.2 secs   av.it.:   2.9
      thresh= 1.150E-07 alpha_mix =  0.300 |ddv_scf|^2 =  4.016E-12

      iter #  11 total cpu time :     2.2 secs   av.it.:   2.0
      thresh= 2.004E-07 alpha_mix =  0.300 |ddv_scf|^2 =  4.018E-14

      iter #  12 total cpu time :     2.3 secs   av.it.:   2.9
      thresh= 2.004E-08 alpha_mix =  0.300 |ddv_scf|^2 =  1.835E-13

      iter #  13 total cpu time :     2.4 secs   av.it.:   2.1
      thresh= 4.284E-08 alpha_mix =  0.300 |ddv_scf|^2 =  1.362E-13

      iter #  14 total cpu time :     2.5 secs   av.it.:   2.3
      thresh= 3.691E-08 alpha_mix =  0.300 |ddv_scf|^2 =  2.040E-16

     End of self-consistent calculation

     Convergence has been achieved 


     Representation #   2 modes #   2   3

     Self-consistent Calculation

      iter #   1 total cpu time :     2.6 secs   av.it.:   1.0
      thresh= 1.000E-02 alpha_mix =  0.300 |ddv_scf|^2 =  2.270E-07

      iter #   2 total cpu time :     2.7 secs   av.it.:   2.6
      thresh= 4.764E-05 alpha_mix =  0.300 |ddv_scf|^2 =  1.071E-07

      iter #   3 total cpu time :     2.9 secs   av.it.:   2.8
      thresh= 3.273E-05 alpha_mix =  0.300 |ddv_scf|^2 =  3.409E-10

      iter #   4 total cpu time :     3.0 secs   av.it.:   3.0
      thresh= 1.846E-06 alpha_mix =  0.300 |ddv_scf|^2 =  6.252E-12

      iter #   5 total cpu time :     3.1 secs   av.it.:   2.9
      thresh= 2.500E-07 alpha_mix =  0.300 |ddv_scf|^2 =  6.468E-13

      iter #   6 total cpu time :     3.2 secs   av.it.:   2.9
      thresh= 8.043E-08 alpha_mix =  0.300 |ddv_scf|^2 =  4.420E-15

      iter #   7 total cpu time :     3.3 secs   av.it.:   3.0
      thresh= 6.648E-09 alpha_mix =  0.300 |ddv_scf|^2 =  1.286E-15

      iter #   8 total cpu time :     3.4 secs   av.it.:   2.9
      thresh= 3.586E-09 alpha_mix =  0.300 |ddv_scf|^2 =  8.687E-19

     End of self-consistent calculation

     Convergence has been achieved 
 
     Number of q in the star =    8
     List of q in the star:
          1   0.088388348   0.088388348   0.088388348
          2   0.088388348  -0.088388348   0.088388348
          3  -0.088388348   0.088388348   0.088388348
          4  -0.088388348  -0.088388348  -0.088388348
          5   0.088388348   0.088388348  -0.088388348
          6  -0.088388348  -0.088388348   0.088388348
          7  -0.088388348   0.088388348  -0.088388348
          8   0.088388348  -0.088388348  -0.088388348

     Diagonalizing the dynamical matrix

     q = (    0.088388348   0.088388348   0.088388348 ) 

 **************************************************************************
     freq (    1) =       2.141340 [THz] =      71.427404 [cm-1]
     freq (    2) =       2.141340 [THz] =      71.427404 [cm-1]
     freq (    3) =       3.802808 [THz] =     126.848019 [cm-1]
 **************************************************************************

     Calculation of q =    0.2651650   0.2651650  -0.0883883
     [opt_tetra]  Optimized tetrahedron method is used.
 
     G-vector sticks info
     --------------------
     sticks:   dense  smooth     PW     G-vecs:    dense   smooth      PW
     Sum         559     283    109                 8801     3119     749
 
     Using Slab Decomposition
 

     Title: 
     Phonon                                                                     


     bravais-lattice index     =            0
     lattice parameter (alat)  =       5.3877  a.u.
     unit-cell volume          =     110.5871 (a.u.)^3
     number of atoms/cell      =            1
     number of atomic types    =            1
     number of electrons       =         3.00
     number of Kohn-Sham states=            6
     kinetic-energy cutoff     =      35.0000  Ry
     charge density cutoff     =     280.0000  Ry
     Exchange-correlation= PBE
                           (   1   4   3   4   0   0   0)

     celldm(1)=   5.387739  celldm(2)=   0.000000  celldm(3)=   0.000000
     celldm(4)=   0.000000  celldm(5)=   0.000000  celldm(6)=   0.000000

     crystal axes: (cart. coord. in units of alat)
               a(1) = (   0.000000   0.707107   0.707107 )  
               a(2) = (   0.707107   0.000000   0.707107 )  
               a(3) = (   0.707107   0.707107   0.000000 )  

     reciprocal axes: (cart. coord. in units 2 pi/alat)
               b(1) = ( -0.707107  0.707107  0.707107 )  
               b(2) = (  0.707107 -0.707107  0.707107 )  
               b(3) = (  0.707107  0.707107 -0.707107 )  


     PseudoPot. # 1 for Al read from file:
     ./Al.pbe-n-rrkjus_psl.0.1.UPF
     MD5 check sum: 6479f6627750700cef6db36d98bbe09a
     Pseudo is Ultrasoft + core correction, Zval =  3.0
     Generated using "atomic" code by A. Dal Corso  v.5.0.99 svn rev. 10869
     Using radial grid of 1135 points,  4 beta functions with: 
                l(1) =   0
                l(2) =   0
                l(3) =   1
                l(4) =   1
     Q(r) pseudized with 0 coefficients 


     atomic species   valence    mass     pseudopotential
     Al                3.00    26.98154     Al( 1.00)

     48 Sym. Ops., with inversion, found



   Cartesian axes

     site n.     atom                  positions (alat units)
         1        Al     tau(   1) = (   0.0000000   0.0000000   0.0000000  )

     number of k points=   576 (tetrahedron method)

     Number of k-points >= 100: set verbosity='high' to print them.

     Dense  grid:     8801 G-vectors     FFT dimensions: (  30,  30,  30)

     Smooth grid:     3119 G-vectors     FFT dimensions: (  24,  24,  24)

     Estimated max dynamical RAM per process >       4.27 MB

     Estimated total dynamical RAM >     273.00 MB

     Check: negative core charge=   -0.000003

     The potential is recalculated from file :
     ./_ph0/pwscf.q_2/pwscf.save/charge-density

     Starting wfcs are    4 atomic +    2 random wfcs

     Band Structure Calculation
     Davidson diagonalization with overlap

     ethr =  3.33E-10,  avg # of iterations = 17.6

     total cpu time spent up to now is        0.7 secs

     End of band structure calculation

     Number of k-points >= 100: set verbosity='high' to print the bands.

     the Fermi energy is     7.9299 ev
 
     [dfpt_tetra]  Dos(E_F)[/Ry] :   0.4128430E+01

     Phonon                                                                     

     bravais-lattice index     =            0
     lattice parameter (alat)  =       5.3877  a.u.
     unit-cell volume          =     110.5871 (a.u.)^3
     number of atoms/cell      =            1
     number of atomic types    =            1
     kinetic-energy cut-off    =      35.0000  Ry
     charge density cut-off    =     280.0000  Ry
     convergence threshold     =      1.0E-15
     beta                      =       0.3000
     number of iterations used =            4
     Exchange-correlation= PBE
                           (   1   4   3   4   0   0   0)


     celldm(1)=    5.38774  celldm(2)=    0.00000  celldm(3)=    0.00000
     celldm(4)=    0.00000  celldm(5)=    0.00000  celldm(6)=    0.00000

     crystal axes: (cart. coord. in units of alat)
               a(1) = (  0.0000  0.7071  0.7071 )  
               a(2) = (  0.7071  0.0000  0.7071 )  
               a(3) = (  0.7071  0.7071  0.0000 )  

     reciprocal axes: (cart. coord. in units 2 pi/alat)
               b(1) = ( -0.7071  0.7071  0.7071 )  
               b(2) = (  0.7071 -0.7071  0.7071 )  
               b(3) = (  0.7071  0.7071 -0.7071 )  


     Atoms inside the unit cell: 

     Cartesian axes

     site n.  atom      mass           positions (alat units)
        1  Al     26.9815   tau(    1) = (    0.00000    0.00000    0.00000  )

     Computing dynamical matrix for 
                    q = (   0.2651650   0.2651650  -0.0883883 )
 
      2 Sym.Ops. (no q -> -q+G )


     G cutoff =  205.8787  (   8801 G-vectors)     FFT grid: ( 30, 30, 30)
     G cutoff =  102.9393  (   3119 G-vectors)  smooth grid: ( 24, 24, 24)
     number of k points=   576

     PseudoPot. # 1 for Al read from file:
     ./Al.pbe-n-rrkjus_psl.0.1.UPF
     MD5 check sum: 6479f6627750700cef6db36d98bbe09a
     Pseudo is Ultrasoft + core correction, Zval =  3.0
     Generated using "atomic" code by A. Dal Corso  v.5.0.99 svn rev. 10869
     Using radial grid of 1135 points,  4 beta functions with: 
                l(1) =   0
                l(2) =   0
                l(3) =   1
                l(4) =   1
     Q(r) pseudized with 0 coefficients 



     Atomic displacements:
     There are    3 irreducible representations

     Representation     1      1 modes -  To be done

     Representation     2      1 modes -  To be done

     Representation     3      1 modes -  To be done



     Alpha used in Ewald sum =   2.8000
     PHONON       :      3.34s CPU      4.10s WALL



     Representation #   1 mode #   1

     Self-consistent Calculation

      iter #   1 total cpu time :     4.2 secs   av.it.:   1.8
      thresh= 1.000E-02 alpha_mix =  0.300 |ddv_scf|^2 =  4.136E-04

      iter #   2 total cpu time :     4.2 secs   av.it.:   2.3
      thresh= 2.034E-03 alpha_mix =  0.300 |ddv_scf|^2 =  3.743E-04

      iter #   3 total cpu time :     4.3 secs   av.it.:   2.1
      thresh= 1.935E-03 alpha_mix =  0.300 |ddv_scf|^2 =  2.985E-07

      iter #   4 total cpu time :     4.4 secs   av.it.:   2.8
      thresh= 5.464E-05 alpha_mix =  0.300 |ddv_scf|^2 =  4.915E-08

      iter #   5 total cpu time :     4.5 secs   av.it.:   2.7
      thresh= 2.217E-05 alpha_mix =  0.300 |ddv_scf|^2 =  2.042E-09

      iter #   6 total cpu time :     4.5 secs   av.it.:   2.9
      thresh= 4.519E-06 alpha_mix =  0.300 |ddv_scf|^2 =  2.410E-11

      iter #   7 total cpu time :     4.6 secs   av.it.:   2.9
      thresh= 4.909E-07 alpha_mix =  0.300 |ddv_scf|^2 =  1.135E-11

      iter #   8 total cpu time :     4.7 secs   av.it.:   2.6
      thresh= 3.369E-07 alpha_mix =  0.300 |ddv_scf|^2 =  6.176E-12

      iter #   9 total cpu time :     4.8 secs   av.it.:   2.7
      thresh= 2.485E-07 alpha_mix =  0.300 |ddv_scf|^2 =  2.132E-12

      iter #  10 total cpu time :     4.8 secs   av.it.:   2.7
      thresh= 1.460E-07 alpha_mix =  0.300 |ddv_scf|^2 =  2.878E-14

      iter #  11 total cpu time :     4.9 secs   av.it.:   3.0
      thresh= 1.696E-08 alpha_mix =  0.300 |ddv_scf|^2 =  6.602E-15

      iter #  12 total cpu time :     5.0 secs   av.it.:   2.8
      thresh= 8.125E-09 alpha_mix =  0.300 |ddv_scf|^2 =  1.456E-15

      iter #  13 total cpu time :     5.1 secs   av.it.:   2.8
      thresh= 3.816E-09 alpha_mix =  0.300 |ddv_scf|^2 =  9.057E-17

     End of self-consistent calculation

     Convergence has been achieved 


     Representation #   2 mode #   2

     Self-consistent Calculation

      iter #   1 total cpu time :     5.2 secs   av.it.:   1.6
      thresh= 1.000E-02 alpha_mix =  0.300 |ddv_scf|^2 =  6.677E-05

      iter #   2 total cpu time :     5.3 secs   av.it.:   2.4
      thresh= 8.171E-04 alpha_mix =  0.300 |ddv_scf|^2 =  6.019E-05

      iter #   3 total cpu time :     5.4 secs   av.it.:   2.1
      thresh= 7.758E-04 alpha_mix =  0.300 |ddv_scf|^2 =  2.853E-07

      iter #   4 total cpu time :     5.5 secs   av.it.:   2.8
      thresh= 5.341E-05 alpha_mix =  0.300 |ddv_scf|^2 =  5.302E-09

      iter #   5 total cpu time :     5.6 secs   av.it.:   2.8
      thresh= 7.282E-06 alpha_mix =  0.300 |ddv_scf|^2 =  2.929E-10

      iter #   6 total cpu time :     5.6 secs   av.it.:   2.9
      thresh= 1.711E-06 alpha_mix =  0.300 |ddv_scf|^2 =  1.762E-11

      iter #   7 total cpu time :     5.7 secs   av.it.:   2.9
      thresh= 4.197E-07 alpha_mix =  0.300 |ddv_scf|^2 =  1.356E-12

      iter #   8 total cpu time :     5.8 secs   av.it.:   2.8
      thresh= 1.164E-07 alpha_mix =  0.300 |ddv_scf|^2 =  8.658E-13

      iter #   9 total cpu time :     5.9 secs   av.it.:   2.5
      thresh= 9.305E-08 alpha_mix =  0.300 |ddv_scf|^2 =  7.271E-14

      iter #  10 total cpu time :     5.9 secs   av.it.:   2.8
      thresh= 2.697E-08 alpha_mix =  0.300 |ddv_scf|^2 =  3.021E-14

      iter #  11 total cpu time :     6.0 secs   av.it.:   2.8
      thresh= 1.738E-08 alpha_mix =  0.300 |ddv_scf|^2 =  1.340E-15

      iter #  12 total cpu time :     6.1 secs   av.it.:   2.8
      thresh= 3.661E-09 alpha_mix =  0.300 |ddv_scf|^2 =  4.026E-16

     End of self-consistent calculation

     Convergence has been achieved 


     Representation #   3 mode #   3

     Self-consistent Calculation

      iter #   1 total cpu time :     6.2 secs   av.it.:   1.0
      thresh= 1.000E-02 alpha_mix =  0.300 |ddv_scf|^2 =  8.792E-07

      iter #   2 total cpu time :     6.3 secs   av.it.:   2.5
      thresh= 9.377E-05 alpha_mix =  0.300 |ddv_scf|^2 =  4.156E-07

      iter #   3 total cpu time :     6.3 secs   av.it.:   2.6
      thresh= 6.446E-05 alpha_mix =  0.300 |ddv_scf|^2 =  1.459E-09

      iter #   4 total cpu time :     6.4 secs   av.it.:   2.9
      thresh= 3.819E-06 alpha_mix =  0.300 |ddv_scf|^2 =  2.534E-11

      iter #   5 total cpu time :     6.5 secs   av.it.:   2.8
      thresh= 5.034E-07 alpha_mix =  0.300 |ddv_scf|^2 =  3.223E-12

      iter #   6 total cpu time :     6.6 secs   av.it.:   2.8
      thresh= 1.795E-07 alpha_mix =  0.300 |ddv_scf|^2 =  1.273E-14

      iter #   7 total cpu time :     6.6 secs   av.it.:   2.9
      thresh= 1.128E-08 alpha_mix =  0.300 |ddv_scf|^2 =  4.227E-15

      iter #   8 total cpu time :     6.7 secs   av.it.:   2.7
      thresh= 6.502E-09 alpha_mix =  0.300 |ddv_scf|^2 =  1.305E-17

     End of self-consistent calculation

     Convergence has been achieved 
 
     Number of q in the star =   24
     List of q in the star:
          1   0.265165043   0.265165043  -0.088388348
          2  -0.088388348   0.265165043   0.265165043
          3   0.265165043  -0.088388348   0.265165043
          4   0.265165043  -0.265165043  -0.088388348
          5  -0.265165043   0.265165043  -0.088388348
          6  -0.088388348  -0.265165043   0.265165043
          7   0.088388348  -0.265165043  -0.265165043
          8  -0.088388348   0.265165043  -0.265165043
          9   0.088388348   0.265165043   0.265165043
         10  -0.265165043  -0.088388348   0.265165043
         11  -0.265165043   0.088388348  -0.265165043
         12   0.265165043  -0.088388348  -0.265165043
         13   0.265165043   0.088388348   0.265165043
         14  -0.265165043  -0.265165043  -0.088388348
         15  -0.265165043  -0.088388348  -0.265165043
         16   0.265165043   0.088388348  -0.265165043
         17  -0.265165043   0.088388348   0.265165043
         18  -0.265165043   0.265165043   0.088388348
         19  -0.088388348  -0.265165043  -0.265165043
         20   0.088388348  -0.265165043   0.265165043
         21   0.088388348   0.265165043  -0.265165043
         22  -0.265165043  -0.265165043   0.088388348
         23   0.265165043   0.265165043   0.088388348
         24   0.265165043  -0.265165043   0.088388348

     Diagonalizing the dynamical matrix

     q = (    0.265165043   0.265165043  -0.088388348 ) 

 **************************************************************************
     freq (    1) =       4.076934 [THz] =     135.991874 [cm-1]
     freq (    2) =       4.823597 [THz] =     160.897871 [cm-1]
     freq (    3) =       7.813142 [THz] =     260.618358 [cm-1]
 **************************************************************************

     Calculation of q =   -0.2651650  -0.2651650   0.4419417
     [opt_tetra]  Optimized tetrahedron method is used.
 
     G-vector sticks info
     --------------------
     sticks:   dense  smooth     PW     G-vecs:    dense   smooth      PW
     Sum         559     283    121                 8801     3119     869
 
     Using Slab Decomposition
 

     Title: 
     Phonon                                                                     


     bravais-lattice index     =            0
     lattice parameter (alat)  =       5.3877  a.u.
     unit-cell volume          =     110.5871 (a.u.)^3
     number of atoms/cell      =            1
     number of atomic types    =            1
     number of electrons       =         3.00
     number of Kohn-Sham states=            6
     kinetic-energy cutoff     =      35.0000  Ry
     charge density cutoff     =     280.0000  Ry
     Exchange-correlation= PBE
                           (   1   4   3   4   0   0   0)

     celldm(1)=   5.387739  celldm(2)=   0.000000  celldm(3)=   0.000000
     celldm(4)=   0.000000  celldm(5)=   0.000000  celldm(6)=   0.000000

     crystal axes: (cart. coord. in units of alat)
               a(1) = (   0.000000   0.707107   0.707107 )  
               a(2) = (   0.707107   0.000000   0.707107 )  
               a(3) = (   0.707107   0.707107   0.000000 )  

     reciprocal axes: (cart. coord. in units 2 pi/alat)
               b(1) = ( -0.707107  0.707107  0.707107 )  
               b(2) = (  0.707107 -0.707107  0.707107 )  
               b(3) = (  0.707107  0.707107 -0.707107 )  


     PseudoPot. # 1 for Al read from file:
     ./Al.pbe-n-rrkjus_psl.0.1.UPF
     MD5 check sum: 6479f6627750700cef6db36d98bbe09a
     Pseudo is Ultrasoft + core correction, Zval =  3.0
     Generated using "atomic" code by A. Dal Corso  v.5.0.99 svn rev. 10869
     Using radial grid of 1135 points,  4 beta functions with: 
                l(1) =   0
                l(2) =   0
                l(3) =   1
                l(4) =   1
     Q(r) pseudized with 0 coefficients 


     atomic species   valence    mass     pseudopotential
     Al                3.00    26.98154     Al( 1.00)

     48 Sym. Ops., with inversion, found



   Cartesian axes

     site n.     atom                  positions (alat units)
         1        Al     tau(   1) = (   0.0000000   0.0000000   0.0000000  )

     number of k points=   576 (tetrahedron method)

     Number of k-points >= 100: set verbosity='high' to print them.

     Dense  grid:     8801 G-vectors     FFT dimensions: (  30,  30,  30)

     Smooth grid:     3119 G-vectors     FFT dimensions: (  24,  24,  24)

     Estimated max dynamical RAM per process >       4.27 MB

     Estimated total dynamical RAM >     273.32 MB

     Check: negative core charge=   -0.000003

     The potential is recalculated from file :
     ./_ph0/pwscf.q_3/pwscf.save/charge-density

     Starting wfcs are    4 atomic +    2 random wfcs

     Band Structure Calculation
     Davidson diagonalization with overlap

     ethr =  3.33E-10,  avg # of iterations = 17.6

     total cpu time spent up to now is        1.0 secs

     End of band structure calculation

     Number of k-points >= 100: set verbosity='high' to print the bands.

     the Fermi energy is     7.9299 ev
 
     [dfpt_tetra]  Dos(E_F)[/Ry] :   0.4128430E+01

     Phonon                                                                     

     bravais-lattice index     =            0
     lattice parameter (alat)  =       5.3877  a.u.
     unit-cell volume          =     110.5871 (a.u.)^3
     number of atoms/cell      =            1
     number of atomic types    =            1
     kinetic-energy cut-off    =      35.0000  Ry
     charge density cut-off    =     280.0000  Ry
     convergence threshold     =      1.0E-15
     beta                      =       0.3000
     number of iterations used =            4
     Exchange-correlation= PBE
                           (   1   4   3   4   0   0   0)


     celldm(1)=    5.38774  celldm(2)=    0.00000  celldm(3)=    0.00000
     celldm(4)=    0.00000  celldm(5)=    0.00000  celldm(6)=    0.00000

     crystal axes: (cart. coord. in units of alat)
               a(1) = (  0.0000  0.7071  0.7071 )  
               a(2) = (  0.7071  0.0000  0.7071 )  
               a(3) = (  0.7071  0.7071  0.0000 )  

     reciprocal axes: (cart. coord. in units 2 pi/alat)
               b(1) = ( -0.7071  0.7071  0.7071 )  
               b(2) = (  0.7071 -0.7071  0.7071 )  
               b(3) = (  0.7071  0.7071 -0.7071 )  


     Atoms inside the unit cell: 

     Cartesian axes

     site n.  atom      mass           positions (alat units)
        1  Al     26.9815   tau(    1) = (    0.00000    0.00000    0.00000  )

     Computing dynamical matrix for 
                    q = (  -0.2651650  -0.2651650   0.4419417 )
 
      2 Sym.Ops. (no q -> -q+G )


     G cutoff =  205.8787  (   8801 G-vectors)     FFT grid: ( 30, 30, 30)
     G cutoff =  102.9393  (   3119 G-vectors)  smooth grid: ( 24, 24, 24)
     number of k points=   576

     PseudoPot. # 1 for Al read from file:
     ./Al.pbe-n-rrkjus_psl.0.1.UPF
     MD5 check sum: 6479f6627750700cef6db36d98bbe09a
     Pseudo is Ultrasoft + core correction, Zval =  3.0
     Generated using "atomic" code by A. Dal Corso  v.5.0.99 svn rev. 10869
     Using radial grid of 1135 points,  4 beta functions with: 
                l(1) =   0
                l(2) =   0
                l(3) =   1
                l(4) =   1
     Q(r) pseudized with 0 coefficients 



     Atomic displacements:
     There are    3 irreducible representations

     Representation     1      1 modes -  To be done

     Representation     2      1 modes -  To be done

     Representation     3      1 modes -  To be done



     Alpha used in Ewald sum =   2.8000
     PHONON       :      6.27s CPU      7.38s WALL



     Representation #   1 mode #   1

     Self-consistent Calculation

      iter #   1 total cpu time :     7.5 secs   av.it.:   1.9
      thresh= 1.000E-02 alpha_mix =  0.300 |ddv_scf|^2 =  2.492E-05

      iter #   2 total cpu time :     7.5 secs   av.it.:   2.5
      thresh= 4.992E-04 alpha_mix =  0.300 |ddv_scf|^2 =  7.259E-07

      iter #   3 total cpu time :     7.6 secs   av.it.:   2.6
      thresh= 8.520E-05 alpha_mix =  0.300 |ddv_scf|^2 =  1.972E-07

      iter #   4 total cpu time :     7.7 secs   av.it.:   2.6
      thresh= 4.440E-05 alpha_mix =  0.300 |ddv_scf|^2 =  4.707E-08

      iter #   5 total cpu time :     7.8 secs   av.it.:   2.7
      thresh= 2.170E-05 alpha_mix =  0.300 |ddv_scf|^2 =  4.961E-11

      iter #   6 total cpu time :     7.8 secs   av.it.:   3.0
      thresh= 7.044E-07 alpha_mix =  0.300 |ddv_scf|^2 =  1.478E-11

      iter #   7 total cpu time :     7.9 secs   av.it.:   2.7
      thresh= 3.845E-07 alpha_mix =  0.300 |ddv_scf|^2 =  4.753E-14

      iter #   8 total cpu time :     8.0 secs   av.it.:   3.0
      thresh= 2.180E-08 alpha_mix =  0.300 |ddv_scf|^2 =  1.651E-14

      iter #   9 total cpu time :     8.1 secs   av.it.:   2.8
      thresh= 1.285E-08 alpha_mix =  0.300 |ddv_scf|^2 =  4.251E-16

     End of self-consistent calculation

     Convergence has been achieved 


     Representation #   2 mode #   2

     Self-consistent Calculation

      iter #   1 total cpu time :     8.2 secs   av.it.:   1.4
      thresh= 1.000E-02 alpha_mix =  0.300 |ddv_scf|^2 =  2.433E-06

      iter #   2 total cpu time :     8.2 secs   av.it.:   2.6
      thresh= 1.560E-04 alpha_mix =  0.300 |ddv_scf|^2 =  4.082E-07

      iter #   3 total cpu time :     8.3 secs   av.it.:   2.4
      thresh= 6.389E-05 alpha_mix =  0.300 |ddv_scf|^2 =  1.667E-07

      iter #   4 total cpu time :     8.4 secs   av.it.:   2.7
      thresh= 4.082E-05 alpha_mix =  0.300 |ddv_scf|^2 =  2.175E-09

      iter #   5 total cpu time :     8.5 secs   av.it.:   2.9
      thresh= 4.664E-06 alpha_mix =  0.300 |ddv_scf|^2 =  1.096E-10

      iter #   6 total cpu time :     8.5 secs   av.it.:   2.9
      thresh= 1.047E-06 alpha_mix =  0.300 |ddv_scf|^2 =  2.697E-12

      iter #   7 total cpu time :     8.6 secs   av.it.:   3.0
      thresh= 1.642E-07 alpha_mix =  0.300 |ddv_scf|^2 =  5.389E-13

      iter #   8 total cpu time :     8.7 secs   av.it.:   2.9
      thresh= 7.341E-08 alpha_mix =  0.300 |ddv_scf|^2 =  8.205E-15

      iter #   9 total cpu time :     8.8 secs   av.it.:   3.0
      thresh= 9.058E-09 alpha_mix =  0.300 |ddv_scf|^2 =  1.752E-15

      iter #  10 total cpu time :     8.8 secs   av.it.:   2.8
      thresh= 4.186E-09 alpha_mix =  0.300 |ddv_scf|^2 =  3.247E-17

     End of self-consistent calculation

     Convergence has been achieved 


     Representation #   3 mode #   3

     Self-consistent Calculation

      iter #   1 total cpu time :     8.9 secs   av.it.:   1.1
      thresh= 1.000E-02 alpha_mix =  0.300 |ddv_scf|^2 =  8.258E-07

      iter #   2 total cpu time :     9.0 secs   av.it.:   2.5
      thresh= 9.088E-05 alpha_mix =  0.300 |ddv_scf|^2 =  3.950E-07

      iter #   3 total cpu time :     9.1 secs   av.it.:   2.6
      thresh= 6.285E-05 alpha_mix =  0.300 |ddv_scf|^2 =  1.181E-09

      iter #   4 total cpu time :     9.2 secs   av.it.:   2.9
      thresh= 3.437E-06 alpha_mix =  0.300 |ddv_scf|^2 =  3.110E-11

      iter #   5 total cpu time :     9.2 secs   av.it.:   2.8
      thresh= 5.577E-07 alpha_mix =  0.300 |ddv_scf|^2 =  5.640E-12

      iter #   6 total cpu time :     9.3 secs   av.it.:   2.8
      thresh= 2.375E-07 alpha_mix =  0.300 |ddv_scf|^2 =  4.320E-14

      iter #   7 total cpu time :     9.4 secs   av.it.:   2.9
      thresh= 2.079E-08 alpha_mix =  0.300 |ddv_scf|^2 =  6.151E-15

      iter #   8 total cpu time :     9.5 secs   av.it.:   2.8
      thresh= 7.843E-09 alpha_mix =  0.300 |ddv_scf|^2 =  8.893E-18

     End of self-consistent calculation

     Convergence has been achieved 
 
     Number of q in the star =   24
     List of q in the star:
          1  -0.265165043  -0.265165043   0.441941738
          2   0.441941738  -0.265165043  -0.265165043
          3  -0.265165043   0.441941738  -0.265165043
          4  -0.265165043   0.265165043   0.441941738
          5   0.265165043  -0.265165043   0.441941738
          6   0.441941738   0.265165043  -0.265165043
          7  -0.441941738   0.265165043   0.265165043
          8   0.441941738  -0.265165043   0.265165043
          9  -0.441941738  -0.265165043  -0.265165043
         10   0.265165043   0.441941738  -0.265165043
         11   0.265165043  -0.441941738   0.265165043
         12  -0.265165043   0.441941738   0.265165043
         13  -0.265165043  -0.441941738  -0.265165043
         14   0.265165043   0.265165043   0.441941738
         15   0.265165043   0.441941738   0.265165043
         16  -0.265165043  -0.441941738   0.265165043
         17   0.265165043  -0.441941738  -0.265165043
         18   0.265165043  -0.265165043  -0.441941738
         19   0.441941738   0.265165043   0.265165043
         20  -0.441941738   0.265165043  -0.265165043
         21  -0.441941738  -0.265165043   0.265165043
         22   0.265165043   0.265165043  -0.441941738
         23  -0.265165043  -0.265165043  -0.441941738
         24  -0.265165043   0.265165043  -0.441941738

     Diagonalizing the dynamical matrix

     q = (   -0.265165043  -0.265165043   0.441941738 ) 

 **************************************************************************
     freq (    1) =       4.679470 [THz] =     156.090330 [cm-1]
     freq (    2) =       5.531864 [THz] =     184.523136 [cm-1]
     freq (    3) =       9.518663 [THz] =     317.508414 [cm-1]
 **************************************************************************

     Calculation of q =   -0.0883883  -0.0883883   0.2651650
     [opt_tetra]  Optimized tetrahedron method is used.
 
     G-vector sticks info
     --------------------
     sticks:   dense  smooth     PW     G-vecs:    dense   smooth      PW
     Sum         559     283    109                 8801     3119     725
 
     Using Slab Decomposition
 

     Title: 
     Phonon                                                                     


     bravais-lattice index     =            0
     lattice parameter (alat)  =       5.3877  a.u.
     unit-cell volume          =     110.5871 (a.u.)^3
     number of atoms/cell      =            1
     number of atomic types    =            1
     number of electrons       =         3.00
     number of Kohn-Sham states=            6
     kinetic-energy cutoff     =      35.0000  Ry
     charge density cutoff     =     280.0000  Ry
     Exchange-correlation= PBE
                           (   1   4   3   4   0   0   0)

     celldm(1)=   5.387739  celldm(2)=   0.000000  celldm(3)=   0.000000
     celldm(4)=   0.000000  celldm(5)=   0.000000  celldm(6)=   0.000000

     crystal axes: (cart. coord. in units of alat)
               a(1) = (   0.000000   0.707107   0.707107 )  
               a(2) = (   0.707107   0.000000   0.707107 )  
               a(3) = (   0.707107   0.707107   0.000000 )  

     reciprocal axes: (cart. coord. in units 2 pi/alat)
               b(1) = ( -0.707107  0.707107  0.707107 )  
               b(2) = (  0.707107 -0.707107  0.707107 )  
               b(3) = (  0.707107  0.707107 -0.707107 )  


     PseudoPot. # 1 for Al read from file:
     ./Al.pbe-n-rrkjus_psl.0.1.UPF
     MD5 check sum: 6479f6627750700cef6db36d98bbe09a
     Pseudo is Ultrasoft + core correction, Zval =  3.0
     Generated using "atomic" code by A. Dal Corso  v.5.0.99 svn rev. 10869
     Using radial grid of 1135 points,  4 beta functions with: 
                l(1) =   0
                l(2) =   0
                l(3) =   1
                l(4) =   1
     Q(r) pseudized with 0 coefficients 


     atomic species   valence    mass     pseudopotential
     Al                3.00    26.98154     Al( 1.00)

     48 Sym. Ops., with inversion, found



   Cartesian axes

     site n.     atom                  positions (alat units)
         1        Al     tau(   1) = (   0.0000000   0.0000000   0.0000000  )

     number of k points=   576 (tetrahedron method)

     Number of k-points >= 100: set verbosity='high' to print them.

     Dense  grid:     8801 G-vectors     FFT dimensions: (  30,  30,  30)

     Smooth grid:     3119 G-vectors     FFT dimensions: (  24,  24,  24)

     Estimated max dynamical RAM per process >       4.26 MB

     Estimated total dynamical RAM >     272.83 MB

     Check: negative core charge=   -0.000003

     The potential is recalculated from file :
     ./_ph0/pwscf.q_4/pwscf.save/charge-density

     Starting wfcs are    4 atomic +    2 random wfcs

     Band Structure Calculation
     Davidson diagonalization with overlap

     ethr =  3.33E-10,  avg # of iterations = 17.7

     total cpu time spent up to now is        1.3 secs

     End of band structure calculation

     Number of k-points >= 100: set verbosity='high' to print the bands.

     the Fermi energy is     7.9299 ev
 
     [dfpt_tetra]  Dos(E_F)[/Ry] :   0.4128430E+01

     Phonon                                                                     

     bravais-lattice index     =            0
     lattice parameter (alat)  =       5.3877  a.u.
     unit-cell volume          =     110.5871 (a.u.)^3
     number of atoms/cell      =            1
     number of atomic types    =            1
     kinetic-energy cut-off    =      35.0000  Ry
     charge density cut-off    =     280.0000  Ry
     convergence threshold     =      1.0E-15
     beta                      =       0.3000
     number of iterations used =            4
     Exchange-correlation= PBE
                           (   1   4   3   4   0   0   0)


     celldm(1)=    5.38774  celldm(2)=    0.00000  celldm(3)=    0.00000
     celldm(4)=    0.00000  celldm(5)=    0.00000  celldm(6)=    0.00000

     crystal axes: (cart. coord. in units of alat)
               a(1) = (  0.0000  0.7071  0.7071 )  
               a(2) = (  0.7071  0.0000  0.7071 )  
               a(3) = (  0.7071  0.7071  0.0000 )  

     reciprocal axes: (cart. coord. in units 2 pi/alat)
               b(1) = ( -0.7071  0.7071  0.7071 )  
               b(2) = (  0.7071 -0.7071  0.7071 )  
               b(3) = (  0.7071  0.7071 -0.7071 )  


     Atoms inside the unit cell: 

     Cartesian axes

     site n.  atom      mass           positions (alat units)
        1  Al     26.9815   tau(    1) = (    0.00000    0.00000    0.00000  )

     Computing dynamical matrix for 
                    q = (  -0.0883883  -0.0883883   0.2651650 )
 
      2 Sym.Ops. (no q -> -q+G )


     G cutoff =  205.8787  (   8801 G-vectors)     FFT grid: ( 30, 30, 30)
     G cutoff =  102.9393  (   3119 G-vectors)  smooth grid: ( 24, 24, 24)
     number of k points=   576

     PseudoPot. # 1 for Al read from file:
     ./Al.pbe-n-rrkjus_psl.0.1.UPF
     MD5 check sum: 6479f6627750700cef6db36d98bbe09a
     Pseudo is Ultrasoft + core correction, Zval =  3.0
     Generated using "atomic" code by A. Dal Corso  v.5.0.99 svn rev. 10869
     Using radial grid of 1135 points,  4 beta functions with: 
                l(1) =   0
                l(2) =   0
                l(3) =   1
                l(4) =   1
     Q(r) pseudized with 0 coefficients 



     Atomic displacements:
     There are    3 irreducible representations

     Representation     1      1 modes -  To be done

     Representation     2      1 modes -  To be done

     Representation     3      1 modes -  To be done



     Alpha used in Ewald sum =   2.8000
     PHONON       :      8.71s CPU     10.10s WALL



     Representation #   1 mode #   1

     Self-consistent Calculation

      iter #   1 total cpu time :    10.2 secs   av.it.:   1.8
      thresh= 1.000E-02 alpha_mix =  0.300 |ddv_scf|^2 =  2.227E-03

      iter #   2 total cpu time :    10.3 secs   av.it.:   2.3
      thresh= 4.720E-03 alpha_mix =  0.300 |ddv_scf|^2 =  1.092E-02

      iter #   3 total cpu time :    10.4 secs   av.it.:   1.9
      thresh= 1.000E-02 alpha_mix =  0.300 |ddv_scf|^2 =  3.295E-07

      iter #   4 total cpu time :    10.4 secs   av.it.:   2.8
      thresh= 5.740E-05 alpha_mix =  0.300 |ddv_scf|^2 =  1.515E-07

      iter #   5 total cpu time :    10.5 secs   av.it.:   2.6
      thresh= 3.892E-05 alpha_mix =  0.300 |ddv_scf|^2 =  1.945E-09

      iter #   6 total cpu time :    10.6 secs   av.it.:   2.6
      thresh= 4.411E-06 alpha_mix =  0.300 |ddv_scf|^2 =  6.445E-10

      iter #   7 total cpu time :    10.7 secs   av.it.:   2.7
      thresh= 2.539E-06 alpha_mix =  0.300 |ddv_scf|^2 =  1.155E-09

      iter #   8 total cpu time :    10.8 secs   av.it.:   2.1
      thresh= 3.399E-06 alpha_mix =  0.300 |ddv_scf|^2 =  4.309E-11

      iter #   9 total cpu time :    10.8 secs   av.it.:   2.6
      thresh= 6.564E-07 alpha_mix =  0.300 |ddv_scf|^2 =  6.637E-13

      iter #  10 total cpu time :    10.9 secs   av.it.:   3.0
      thresh= 8.147E-08 alpha_mix =  0.300 |ddv_scf|^2 =  1.135E-14

      iter #  11 total cpu time :    11.0 secs   av.it.:   2.9
      thresh= 1.065E-08 alpha_mix =  0.300 |ddv_scf|^2 =  4.158E-15

      iter #  12 total cpu time :    11.1 secs   av.it.:   2.8
      thresh= 6.448E-09 alpha_mix =  0.300 |ddv_scf|^2 =  4.186E-15

      iter #  13 total cpu time :    11.1 secs   av.it.:   2.3
      thresh= 6.470E-09 alpha_mix =  0.300 |ddv_scf|^2 =  8.067E-17

     End of self-consistent calculation

     Convergence has been achieved 


     Representation #   2 mode #   2

     Self-consistent Calculation

      iter #   1 total cpu time :    11.2 secs   av.it.:   1.6
      thresh= 1.000E-02 alpha_mix =  0.300 |ddv_scf|^2 =  7.181E-04

      iter #   2 total cpu time :    11.3 secs   av.it.:   2.3
      thresh= 2.680E-03 alpha_mix =  0.300 |ddv_scf|^2 =  3.516E-03

      iter #   3 total cpu time :    11.4 secs   av.it.:   1.9
      thresh= 5.930E-03 alpha_mix =  0.300 |ddv_scf|^2 =  3.408E-07

      iter #   4 total cpu time :    11.5 secs   av.it.:   2.8
      thresh= 5.838E-05 alpha_mix =  0.300 |ddv_scf|^2 =  1.346E-07

      iter #   5 total cpu time :    11.6 secs   av.it.:   2.7
      thresh= 3.668E-05 alpha_mix =  0.300 |ddv_scf|^2 =  9.051E-10

      iter #   6 total cpu time :    11.7 secs   av.it.:   2.9
      thresh= 3.008E-06 alpha_mix =  0.300 |ddv_scf|^2 =  1.082E-09

      iter #   7 total cpu time :    11.8 secs   av.it.:   2.6
      thresh= 3.290E-06 alpha_mix =  0.300 |ddv_scf|^2 =  3.995E-10

      iter #   8 total cpu time :    11.9 secs   av.it.:   2.3
      thresh= 1.999E-06 alpha_mix =  0.300 |ddv_scf|^2 =  7.867E-12

      iter #   9 total cpu time :    11.9 secs   av.it.:   2.8
      thresh= 2.805E-07 alpha_mix =  0.300 |ddv_scf|^2 =  7.377E-13

      iter #  10 total cpu time :    12.0 secs   av.it.:   2.9
      thresh= 8.589E-08 alpha_mix =  0.300 |ddv_scf|^2 =  5.015E-15

      iter #  11 total cpu time :    12.1 secs   av.it.:   2.9
      thresh= 7.082E-09 alpha_mix =  0.300 |ddv_scf|^2 =  2.107E-15

      iter #  12 total cpu time :    12.1 secs   av.it.:   2.7
      thresh= 4.590E-09 alpha_mix =  0.300 |ddv_scf|^2 =  6.600E-16

     End of self-consistent calculation

     Convergence has been achieved 


     Representation #   3 mode #   3

     Self-consistent Calculation

      iter #   1 total cpu time :    12.2 secs   av.it.:   1.1
      thresh= 1.000E-02 alpha_mix =  0.300 |ddv_scf|^2 =  8.584E-07

      iter #   2 total cpu time :    12.3 secs   av.it.:   2.5
      thresh= 9.265E-05 alpha_mix =  0.300 |ddv_scf|^2 =  4.095E-07

      iter #   3 total cpu time :    12.4 secs   av.it.:   2.6
      thresh= 6.400E-05 alpha_mix =  0.300 |ddv_scf|^2 =  1.129E-09

      iter #   4 total cpu time :    12.4 secs   av.it.:   2.9
      thresh= 3.361E-06 alpha_mix =  0.300 |ddv_scf|^2 =  3.797E-11

      iter #   5 total cpu time :    12.5 secs   av.it.:   2.8
      thresh= 6.162E-07 alpha_mix =  0.300 |ddv_scf|^2 =  6.637E-12

      iter #   6 total cpu time :    12.6 secs   av.it.:   2.8
      thresh= 2.576E-07 alpha_mix =  0.300 |ddv_scf|^2 =  1.792E-14

      iter #   7 total cpu time :    12.7 secs   av.it.:   3.0
      thresh= 1.339E-08 alpha_mix =  0.300 |ddv_scf|^2 =  5.741E-15

      iter #   8 total cpu time :    12.7 secs   av.it.:   2.7
      thresh= 7.577E-09 alpha_mix =  0.300 |ddv_scf|^2 =  6.319E-18

     End of self-consistent calculation

     Convergence has been achieved 
 
     Number of q in the star =   24
     List of q in the star:
          1  -0.088388348  -0.088388348   0.265165043
          2   0.265165043  -0.088388348  -0.088388348
          3  -0.088388348   0.265165043  -0.088388348
          4  -0.088388348   0.088388348   0.265165043
          5   0.088388348  -0.088388348   0.265165043
          6   0.265165043   0.088388348  -0.088388348
          7  -0.265165043   0.088388348   0.088388348
          8   0.265165043  -0.088388348   0.088388348
          9  -0.265165043  -0.088388348  -0.088388348
         10   0.088388348   0.265165043  -0.088388348
         11   0.088388348  -0.265165043   0.088388348
         12  -0.088388348   0.265165043   0.088388348
         13  -0.088388348  -0.265165043  -0.088388348
         14   0.088388348   0.088388348   0.265165043
         15   0.088388348   0.265165043   0.088388348
         16  -0.088388348  -0.265165043   0.088388348
         17   0.088388348  -0.265165043  -0.088388348
         18   0.088388348  -0.088388348  -0.265165043
         19   0.265165043   0.088388348   0.088388348
         20  -0.265165043   0.088388348  -0.088388348
         21  -0.265165043  -0.088388348   0.088388348
         22   0.088388348   0.088388348  -0.265165043
         23  -0.088388348  -0.088388348  -0.265165043
         24  -0.088388348   0.088388348  -0.265165043

     Diagonalizing the dynamical matrix

     q = (   -0.088388348  -0.088388348   0.265165043 ) 

 **************************************************************************
     freq (    1) =       3.599856 [THz] =     120.078264 [cm-1]
     freq (    2) =       3.722560 [THz] =     124.171220 [cm-1]
     freq (    3) =       6.423162 [THz] =     214.253607 [cm-1]
 **************************************************************************

     Calculation of q =    0.4419417   0.0883883   0.0883883
     [opt_tetra]  Optimized tetrahedron method is used.
 
     G-vector sticks info
     --------------------
     sticks:   dense  smooth     PW     G-vecs:    dense   smooth      PW
     Sum         559     283    109                 8801     3119     749
 
     Using Slab Decomposition
 

     Title: 
     Phonon                                                                     


     bravais-lattice index     =            0
     lattice parameter (alat)  =       5.3877  a.u.
     unit-cell volume          =     110.5871 (a.u.)^3
     number of atoms/cell      =            1
     number of atomic types    =            1
     number of electrons       =         3.00
     number of Kohn-Sham states=            6
     kinetic-energy cutoff     =      35.0000  Ry
     charge density cutoff     =     280.0000  Ry
     Exchange-correlation= PBE
                           (   1   4   3   4   0   0   0)

     celldm(1)=   5.387739  celldm(2)=   0.000000  celldm(3)=   0.000000
     celldm(4)=   0.000000  celldm(5)=   0.000000  celldm(6)=   0.000000

     crystal axes: (cart. coord. in units of alat)
               a(1) = (   0.000000   0.707107   0.707107 )  
               a(2) = (   0.707107   0.000000   0.707107 )  
               a(3) = (   0.707107   0.707107   0.000000 )  

     reciprocal axes: (cart. coord. in units 2 pi/alat)
               b(1) = ( -0.707107  0.707107  0.707107 )  
               b(2) = (  0.707107 -0.707107  0.707107 )  
               b(3) = (  0.707107  0.707107 -0.707107 )  


     PseudoPot. # 1 for Al read from file:
     ./Al.pbe-n-rrkjus_psl.0.1.UPF
     MD5 check sum: 6479f6627750700cef6db36d98bbe09a
     Pseudo is Ultrasoft + core correction, Zval =  3.0
     Generated using "atomic" code by A. Dal Corso  v.5.0.99 svn rev. 10869
     Using radial grid of 1135 points,  4 beta functions with: 
                l(1) =   0
                l(2) =   0
                l(3) =   1
                l(4) =   1
     Q(r) pseudized with 0 coefficients 


     atomic species   valence    mass     pseudopotential
     Al                3.00    26.98154     Al( 1.00)

     48 Sym. Ops., with inversion, found



   Cartesian axes

     site n.     atom                  positions (alat units)
         1        Al     tau(   1) = (   0.0000000   0.0000000   0.0000000  )

     number of k points=   576 (tetrahedron method)

     Number of k-points >= 100: set verbosity='high' to print them.

     Dense  grid:     8801 G-vectors     FFT dimensions: (  30,  30,  30)

     Smooth grid:     3119 G-vectors     FFT dimensions: (  24,  24,  24)

     Estimated max dynamical RAM per process >       4.27 MB

     Estimated total dynamical RAM >     273.11 MB

     Check: negative core charge=   -0.000003

     The potential is recalculated from file :
     ./_ph0/pwscf.q_5/pwscf.save/charge-density

     Starting wfcs are    4 atomic +    2 random wfcs

     Band Structure Calculation
     Davidson diagonalization with overlap

     ethr =  3.33E-10,  avg # of iterations = 17.6

     total cpu time spent up to now is        1.6 secs

     End of band structure calculation

     Number of k-points >= 100: set verbosity='high' to print the bands.

     the Fermi energy is     7.9299 ev
 
     [dfpt_tetra]  Dos(E_F)[/Ry] :   0.4128430E+01

     Phonon                                                                     

     bravais-lattice index     =            0
     lattice parameter (alat)  =       5.3877  a.u.
     unit-cell volume          =     110.5871 (a.u.)^3
     number of atoms/cell      =            1
     number of atomic types    =            1
     kinetic-energy cut-off    =      35.0000  Ry
     charge density cut-off    =     280.0000  Ry
     convergence threshold     =      1.0E-15
     beta                      =       0.3000
     number of iterations used =            4
     Exchange-correlation= PBE
                           (   1   4   3   4   0   0   0)


     celldm(1)=    5.38774  celldm(2)=    0.00000  celldm(3)=    0.00000
     celldm(4)=    0.00000  celldm(5)=    0.00000  celldm(6)=    0.00000

     crystal axes: (cart. coord. in units of alat)
               a(1) = (  0.0000  0.7071  0.7071 )  
               a(2) = (  0.7071  0.0000  0.7071 )  
               a(3) = (  0.7071  0.7071  0.0000 )  

     reciprocal axes: (cart. coord. in units 2 pi/alat)
               b(1) = ( -0.7071  0.7071  0.7071 )  
               b(2) = (  0.7071 -0.7071  0.7071 )  
               b(3) = (  0.7071  0.7071 -0.7071 )  


     Atoms inside the unit cell: 

     Cartesian axes

     site n.  atom      mass           positions (alat units)
        1  Al     26.9815   tau(    1) = (    0.00000    0.00000    0.00000  )

     Computing dynamical matrix for 
                    q = (   0.4419417   0.0883883   0.0883883 )
 
      2 Sym.Ops. (no q -> -q+G )


     G cutoff =  205.8787  (   8801 G-vectors)     FFT grid: ( 30, 30, 30)
     G cutoff =  102.9393  (   3119 G-vectors)  smooth grid: ( 24, 24, 24)
     number of k points=   576

     PseudoPot. # 1 for Al read from file:
     ./Al.pbe-n-rrkjus_psl.0.1.UPF
     MD5 check sum: 6479f6627750700cef6db36d98bbe09a
     Pseudo is Ultrasoft + core correction, Zval =  3.0
     Generated using "atomic" code by A. Dal Corso  v.5.0.99 svn rev. 10869
     Using radial grid of 1135 points,  4 beta functions with: 
                l(1) =   0
                l(2) =   0
                l(3) =   1
                l(4) =   1
     Q(r) pseudized with 0 coefficients 



     Atomic displacements:
     There are    3 irreducible representations

     Representation     1      1 modes -  To be done

     Representation     2      1 modes -  To be done

     Representation     3      1 modes -  To be done



     Alpha used in Ewald sum =   2.8000
     PHONON       :     11.50s CPU     13.40s WALL



     Representation #   1 mode #   1

     Self-consistent Calculation

      iter #   1 total cpu time :    13.5 secs   av.it.:   1.8
      thresh= 1.000E-02 alpha_mix =  0.300 |ddv_scf|^2 =  1.243E-04

      iter #   2 total cpu time :    13.5 secs   av.it.:   2.3
      thresh= 1.115E-03 alpha_mix =  0.300 |ddv_scf|^2 =  2.142E-05

      iter #   3 total cpu time :    13.6 secs   av.it.:   2.3
      thresh= 4.628E-04 alpha_mix =  0.300 |ddv_scf|^2 =  2.450E-07

      iter #   4 total cpu time :    13.7 secs   av.it.:   2.8
      thresh= 4.949E-05 alpha_mix =  0.300 |ddv_scf|^2 =  2.964E-09

      iter #   5 total cpu time :    13.8 secs   av.it.:   2.9
      thresh= 5.444E-06 alpha_mix =  0.300 |ddv_scf|^2 =  4.693E-10

      iter #   6 total cpu time :    13.8 secs   av.it.:   2.8
      thresh= 2.166E-06 alpha_mix =  0.300 |ddv_scf|^2 =  1.153E-11

      iter #   7 total cpu time :    13.9 secs   av.it.:   2.9
      thresh= 3.396E-07 alpha_mix =  0.300 |ddv_scf|^2 =  2.754E-13

      iter #   8 total cpu time :    14.0 secs   av.it.:   2.9
      thresh= 5.248E-08 alpha_mix =  0.300 |ddv_scf|^2 =  4.780E-14

      iter #   9 total cpu time :    14.1 secs   av.it.:   2.7
      thresh= 2.186E-08 alpha_mix =  0.300 |ddv_scf|^2 =  1.503E-14

      iter #  10 total cpu time :    14.1 secs   av.it.:   2.8
      thresh= 1.226E-08 alpha_mix =  0.300 |ddv_scf|^2 =  3.722E-16

     End of self-consistent calculation

     Convergence has been achieved 


     Representation #   2 mode #   2

     Self-consistent Calculation

      iter #   1 total cpu time :    14.2 secs   av.it.:   1.2
      thresh= 1.000E-02 alpha_mix =  0.300 |ddv_scf|^2 =  7.964E-07

      iter #   2 total cpu time :    14.3 secs   av.it.:   2.5
      thresh= 8.924E-05 alpha_mix =  0.300 |ddv_scf|^2 =  3.868E-07

      iter #   3 total cpu time :    14.4 secs   av.it.:   2.6
      thresh= 6.219E-05 alpha_mix =  0.300 |ddv_scf|^2 =  4.121E-10

      iter #   4 total cpu time :    14.5 secs   av.it.:   2.9
      thresh= 2.030E-06 alpha_mix =  0.300 |ddv_scf|^2 =  4.702E-11

      iter #   5 total cpu time :    14.5 secs   av.it.:   2.7
      thresh= 6.857E-07 alpha_mix =  0.300 |ddv_scf|^2 =  3.532E-12

      iter #   6 total cpu time :    14.6 secs   av.it.:   2.8
      thresh= 1.879E-07 alpha_mix =  0.300 |ddv_scf|^2 =  1.189E-14

      iter #   7 total cpu time :    14.7 secs   av.it.:   3.0
      thresh= 1.090E-08 alpha_mix =  0.300 |ddv_scf|^2 =  4.452E-15

      iter #   8 total cpu time :    14.8 secs   av.it.:   2.7
      thresh= 6.672E-09 alpha_mix =  0.300 |ddv_scf|^2 =  3.327E-18

     End of self-consistent calculation

     Convergence has been achieved 


     Representation #   3 mode #   3

     Self-consistent Calculation

      iter #   1 total cpu time :    14.8 secs   av.it.:   1.5
      thresh= 1.000E-02 alpha_mix =  0.300 |ddv_scf|^2 =  9.367E-06

      iter #   2 total cpu time :    14.9 secs   av.it.:   2.5
      thresh= 3.061E-04 alpha_mix =  0.300 |ddv_scf|^2 =  1.876E-06

      iter #   3 total cpu time :    15.0 secs   av.it.:   2.4
      thresh= 1.370E-04 alpha_mix =  0.300 |ddv_scf|^2 =  2.443E-07

      iter #   4 total cpu time :    15.1 secs   av.it.:   2.7
      thresh= 4.942E-05 alpha_mix =  0.300 |ddv_scf|^2 =  1.655E-09

      iter #   5 total cpu time :    15.2 secs   av.it.:   2.9
      thresh= 4.068E-06 alpha_mix =  0.300 |ddv_scf|^2 =  2.102E-10

      iter #   6 total cpu time :    15.2 secs   av.it.:   2.8
      thresh= 1.450E-06 alpha_mix =  0.300 |ddv_scf|^2 =  1.696E-11

      iter #   7 total cpu time :    15.3 secs   av.it.:   2.9
      thresh= 4.118E-07 alpha_mix =  0.300 |ddv_scf|^2 =  2.172E-13

      iter #   8 total cpu time :    15.4 secs   av.it.:   2.9
      thresh= 4.660E-08 alpha_mix =  0.300 |ddv_scf|^2 =  9.002E-14

      iter #   9 total cpu time :    15.5 secs   av.it.:   2.8
      thresh= 3.000E-08 alpha_mix =  0.300 |ddv_scf|^2 =  5.134E-16

     End of self-consistent calculation

     Convergence has been achieved 
 
     Number of q in the star =   24
     List of q in the star:
          1   0.441941738   0.088388348   0.088388348
          2   0.088388348   0.441941738   0.088388348
          3   0.088388348   0.088388348   0.441941738
          4   0.088388348  -0.441941738   0.088388348
          5  -0.088388348   0.441941738   0.088388348
          6   0.088388348  -0.088388348   0.441941738
          7  -0.088388348  -0.088388348  -0.441941738
          8   0.088388348   0.088388348  -0.441941738
          9  -0.088388348   0.088388348   0.441941738
         10  -0.441941738   0.088388348   0.088388348
         11  -0.441941738  -0.088388348  -0.088388348
         12   0.441941738   0.088388348  -0.088388348
         13   0.441941738  -0.088388348   0.088388348
         14  -0.441941738  -0.088388348   0.088388348
         15  -0.088388348   0.088388348  -0.441941738
         16   0.088388348  -0.088388348  -0.441941738
         17  -0.088388348  -0.088388348   0.441941738
         18  -0.441941738   0.088388348  -0.088388348
         19   0.088388348  -0.441941738  -0.088388348
         20  -0.088388348  -0.441941738   0.088388348
         21  -0.088388348   0.441941738  -0.088388348
         22   0.441941738  -0.088388348  -0.088388348
         23   0.088388348   0.441941738  -0.088388348
         24  -0.088388348  -0.441941738  -0.088388348

     Diagonalizing the dynamical matrix

     q = (    0.441941738   0.088388348   0.088388348 ) 

 **************************************************************************
     freq (    1) =       4.933281 [THz] =     164.556545 [cm-1]
     freq (    2) =       5.508196 [THz] =     183.733642 [cm-1]
     freq (    3) =       8.400453 [THz] =     280.208947 [cm-1]
 **************************************************************************

     Calculation of q =   -0.0883883  -0.4419417   0.6187184
     [opt_tetra]  Optimized tetrahedron method is used.
 
     G-vector sticks info
     --------------------
     sticks:   dense  smooth     PW     G-vecs:    dense   smooth      PW
     Sum         559     283    121                 8801     3119     893
 
     Using Slab Decomposition
 

     Title: 
     Phonon                                                                     


     bravais-lattice index     =            0
     lattice parameter (alat)  =       5.3877  a.u.
     unit-cell volume          =     110.5871 (a.u.)^3
     number of atoms/cell      =            1
     number of atomic types    =            1
     number of electrons       =         3.00
     number of Kohn-Sham states=            6
     kinetic-energy cutoff     =      35.0000  Ry
     charge density cutoff     =     280.0000  Ry
     Exchange-correlation= PBE
                           (   1   4   3   4   0   0   0)

     celldm(1)=   5.387739  celldm(2)=   0.000000  celldm(3)=   0.000000
     celldm(4)=   0.000000  celldm(5)=   0.000000  celldm(6)=   0.000000

     crystal axes: (cart. coord. in units of alat)
               a(1) = (   0.000000   0.707107   0.707107 )  
               a(2) = (   0.707107   0.000000   0.707107 )  
               a(3) = (   0.707107   0.707107   0.000000 )  

     reciprocal axes: (cart. coord. in units 2 pi/alat)
               b(1) = ( -0.707107  0.707107  0.707107 )  
               b(2) = (  0.707107 -0.707107  0.707107 )  
               b(3) = (  0.707107  0.707107 -0.707107 )  


     PseudoPot. # 1 for Al read from file:
     ./Al.pbe-n-rrkjus_psl.0.1.UPF
     MD5 check sum: 6479f6627750700cef6db36d98bbe09a
     Pseudo is Ultrasoft + core correction, Zval =  3.0
     Generated using "atomic" code by A. Dal Corso  v.5.0.99 svn rev. 10869
     Using radial grid of 1135 points,  4 beta functions with: 
                l(1) =   0
                l(2) =   0
                l(3) =   1
                l(4) =   1
     Q(r) pseudized with 0 coefficients 


     atomic species   valence    mass     pseudopotential
     Al                3.00    26.98154     Al( 1.00)

     48 Sym. Ops., with inversion, found



   Cartesian axes

     site n.     atom                  positions (alat units)
         1        Al     tau(   1) = (   0.0000000   0.0000000   0.0000000  )

     number of k points=  1024 (tetrahedron method)

     Number of k-points >= 100: set verbosity='high' to print them.

     Dense  grid:     8801 G-vectors     FFT dimensions: (  30,  30,  30)

     Smooth grid:     3119 G-vectors     FFT dimensions: (  24,  24,  24)

     Estimated max dynamical RAM per process >       4.49 MB

     Estimated total dynamical RAM >     287.25 MB

     Check: negative core charge=   -0.000003

     The potential is recalculated from file :
     ./_ph0/pwscf.q_6/pwscf.save/charge-density

     Starting wfcs are    4 atomic +    2 random wfcs

     Band Structure Calculation
     Davidson diagonalization with overlap

     ethr =  3.33E-10,  avg # of iterations = 17.6

     total cpu time spent up to now is        2.0 secs

     End of band structure calculation

     Number of k-points >= 100: set verbosity='high' to print the bands.

     the Fermi energy is     7.9299 ev
 
     [dfpt_tetra]  Dos(E_F)[/Ry] :   0.4128430E+01

     Phonon                                                                     

     bravais-lattice index     =            0
     lattice parameter (alat)  =       5.3877  a.u.
     unit-cell volume          =     110.5871 (a.u.)^3
     number of atoms/cell      =            1
     number of atomic types    =            1
     kinetic-energy cut-off    =      35.0000  Ry
     charge density cut-off    =     280.0000  Ry
     convergence threshold     =      1.0E-15
     beta                      =       0.3000
     number of iterations used =            4
     Exchange-correlation= PBE
                           (   1   4   3   4   0   0   0)


     celldm(1)=    5.38774  celldm(2)=    0.00000  celldm(3)=    0.00000
     celldm(4)=    0.00000  celldm(5)=    0.00000  celldm(6)=    0.00000

     crystal axes: (cart. coord. in units of alat)
               a(1) = (  0.0000  0.7071  0.7071 )  
               a(2) = (  0.7071  0.0000  0.7071 )  
               a(3) = (  0.7071  0.7071  0.0000 )  

     reciprocal axes: (cart. coord. in units 2 pi/alat)
               b(1) = ( -0.7071  0.7071  0.7071 )  
               b(2) = (  0.7071 -0.7071  0.7071 )  
               b(3) = (  0.7071  0.7071 -0.7071 )  


     Atoms inside the unit cell: 

     Cartesian axes

     site n.  atom      mass           positions (alat units)
        1  Al     26.9815   tau(    1) = (    0.00000    0.00000    0.00000  )

     Computing dynamical matrix for 
                    q = (  -0.0883883  -0.4419417   0.6187184 )
 
     No symmetry!

     G cutoff =  205.8787  (   8801 G-vectors)     FFT grid: ( 30, 30, 30)
     G cutoff =  102.9393  (   3119 G-vectors)  smooth grid: ( 24, 24, 24)
     number of k points=  1024

     PseudoPot. # 1 for Al read from file:
     ./Al.pbe-n-rrkjus_psl.0.1.UPF
     MD5 check sum: 6479f6627750700cef6db36d98bbe09a
     Pseudo is Ultrasoft + core correction, Zval =  3.0
     Generated using "atomic" code by A. Dal Corso  v.5.0.99 svn rev. 10869
     Using radial grid of 1135 points,  4 beta functions with: 
                l(1) =   0
                l(2) =   0
                l(3) =   1
                l(4) =   1
     Q(r) pseudized with 0 coefficients 



     Atomic displacements:
     There are    3 irreducible representations

     Representation     1      1 modes -  To be done

     Representation     2      1 modes -  To be done

     Representation     3      1 modes -  To be done



     Alpha used in Ewald sum =   2.8000
     PHONON       :     13.97s CPU     16.18s WALL



     Representation #   1 mode #   1

     Self-consistent Calculation

      iter #   1 total cpu time :    16.2 secs   av.it.:   1.8
      thresh= 1.000E-02 alpha_mix =  0.300 |ddv_scf|^2 =  5.157E-06

      iter #   2 total cpu time :    16.3 secs   av.it.:   2.6
      thresh= 2.271E-04 alpha_mix =  0.300 |ddv_scf|^2 =  7.386E-07

      iter #   3 total cpu time :    16.4 secs   av.it.:   2.7
      thresh= 8.594E-05 alpha_mix =  0.300 |ddv_scf|^2 =  1.332E-07

      iter #   4 total cpu time :    16.5 secs   av.it.:   2.7
      thresh= 3.649E-05 alpha_mix =  0.300 |ddv_scf|^2 =  5.405E-09

      iter #   5 total cpu time :    16.6 secs   av.it.:   2.9
      thresh= 7.352E-06 alpha_mix =  0.300 |ddv_scf|^2 =  4.248E-11

      iter #   6 total cpu time :    16.7 secs   av.it.:   3.0
      thresh= 6.518E-07 alpha_mix =  0.300 |ddv_scf|^2 =  1.503E-11

      iter #   7 total cpu time :    16.8 secs   av.it.:   2.7
      thresh= 3.877E-07 alpha_mix =  0.300 |ddv_scf|^2 =  8.025E-13

      iter #   8 total cpu time :    16.9 secs   av.it.:   2.9
      thresh= 8.958E-08 alpha_mix =  0.300 |ddv_scf|^2 =  1.896E-14

      iter #   9 total cpu time :    17.0 secs   av.it.:   2.9
      thresh= 1.377E-08 alpha_mix =  0.300 |ddv_scf|^2 =  5.381E-15

      iter #  10 total cpu time :    17.1 secs   av.it.:   2.7
      thresh= 7.336E-09 alpha_mix =  0.300 |ddv_scf|^2 =  9.864E-16

     End of self-consistent calculation

     Convergence has been achieved 


     Representation #   2 mode #   2

     Self-consistent Calculation

      iter #   1 total cpu time :    17.2 secs   av.it.:   1.7
      thresh= 1.000E-02 alpha_mix =  0.300 |ddv_scf|^2 =  2.014E-06

      iter #   2 total cpu time :    17.3 secs   av.it.:   2.7
      thresh= 1.419E-04 alpha_mix =  0.300 |ddv_scf|^2 =  4.922E-07

      iter #   3 total cpu time :    17.5 secs   av.it.:   2.7
      thresh= 7.016E-05 alpha_mix =  0.300 |ddv_scf|^2 =  1.108E-07

      iter #   4 total cpu time :    17.5 secs   av.it.:   2.7
      thresh= 3.329E-05 alpha_mix =  0.300 |ddv_scf|^2 =  2.462E-09

      iter #   5 total cpu time :    17.6 secs   av.it.:   2.9
      thresh= 4.962E-06 alpha_mix =  0.300 |ddv_scf|^2 =  5.727E-11

      iter #   6 total cpu time :    17.7 secs   av.it.:   2.9
      thresh= 7.568E-07 alpha_mix =  0.300 |ddv_scf|^2 =  9.852E-12

      iter #   7 total cpu time :    17.8 secs   av.it.:   2.8
      thresh= 3.139E-07 alpha_mix =  0.300 |ddv_scf|^2 =  1.418E-12

      iter #   8 total cpu time :    17.9 secs   av.it.:   2.9
      thresh= 1.191E-07 alpha_mix =  0.300 |ddv_scf|^2 =  2.758E-14

      iter #   9 total cpu time :    18.0 secs   av.it.:   3.0
      thresh= 1.661E-08 alpha_mix =  0.300 |ddv_scf|^2 =  8.056E-15

      iter #  10 total cpu time :    18.1 secs   av.it.:   2.8
      thresh= 8.975E-09 alpha_mix =  0.300 |ddv_scf|^2 =  1.172E-15

      iter #  11 total cpu time :    18.2 secs   av.it.:   2.9
      thresh= 3.423E-09 alpha_mix =  0.300 |ddv_scf|^2 =  1.069E-16

     End of self-consistent calculation

     Convergence has been achieved 


     Representation #   3 mode #   3

     Self-consistent Calculation

      iter #   1 total cpu time :    18.3 secs   av.it.:   1.6
      thresh= 1.000E-02 alpha_mix =  0.300 |ddv_scf|^2 =  1.338E-06

      iter #   2 total cpu time :    18.4 secs   av.it.:   2.7
      thresh= 1.157E-04 alpha_mix =  0.300 |ddv_scf|^2 =  4.616E-07

      iter #   3 total cpu time :    18.5 secs   av.it.:   2.7
      thresh= 6.794E-05 alpha_mix =  0.300 |ddv_scf|^2 =  7.316E-08

      iter #   4 total cpu time :    18.6 secs   av.it.:   2.8
      thresh= 2.705E-05 alpha_mix =  0.300 |ddv_scf|^2 =  2.229E-09

      iter #   5 total cpu time :    18.7 secs   av.it.:   2.9
      thresh= 4.721E-06 alpha_mix =  0.300 |ddv_scf|^2 =  5.646E-11

      iter #   6 total cpu time :    18.7 secs   av.it.:   2.9
      thresh= 7.514E-07 alpha_mix =  0.300 |ddv_scf|^2 =  9.363E-12

      iter #   7 total cpu time :    18.8 secs   av.it.:   2.8
      thresh= 3.060E-07 alpha_mix =  0.300 |ddv_scf|^2 =  1.155E-12

      iter #   8 total cpu time :    18.9 secs   av.it.:   2.9
      thresh= 1.075E-07 alpha_mix =  0.300 |ddv_scf|^2 =  3.234E-14

      iter #   9 total cpu time :    19.0 secs   av.it.:   2.9
      thresh= 1.798E-08 alpha_mix =  0.300 |ddv_scf|^2 =  9.738E-15

      iter #  10 total cpu time :    19.1 secs   av.it.:   2.7
      thresh= 9.868E-09 alpha_mix =  0.300 |ddv_scf|^2 =  2.073E-15

      iter #  11 total cpu time :    19.2 secs   av.it.:   2.8
      thresh= 4.553E-09 alpha_mix =  0.300 |ddv_scf|^2 =  1.709E-16

     End of self-consistent calculation

     Convergence has been achieved 
 
     Number of q in the star =   48
     List of q in the star:
          1  -0.088388348  -0.441941738   0.618718434
          2  -0.088388348   0.618718434  -0.441941738
          3   0.618718434  -0.088388348  -0.441941738
          4  -0.441941738   0.618718434  -0.088388348
          5   0.618718434  -0.441941738  -0.088388348
          6  -0.441941738  -0.088388348   0.618718434
          7  -0.441941738   0.088388348   0.618718434
          8   0.441941738  -0.088388348   0.618718434
          9   0.618718434   0.441941738  -0.088388348
         10  -0.618718434   0.441941738   0.088388348
         11   0.618718434  -0.441941738   0.088388348
         12  -0.618718434  -0.441941738  -0.088388348
         13   0.088388348   0.618718434  -0.441941738
         14   0.088388348  -0.618718434   0.441941738
         15  -0.088388348   0.618718434   0.441941738
         16  -0.088388348  -0.618718434  -0.441941738
         17   0.088388348   0.441941738   0.618718434
         18   0.441941738   0.618718434   0.088388348
         19  -0.441941738  -0.618718434   0.088388348
         20   0.441941738  -0.618718434  -0.088388348
         21   0.088388348  -0.441941738  -0.618718434
         22   0.618718434   0.088388348   0.441941738
         23  -0.618718434   0.088388348  -0.441941738
         24  -0.618718434  -0.088388348   0.441941738
         25   0.088388348   0.441941738  -0.618718434
         26  -0.088388348  -0.441941738  -0.618718434
         27  -0.088388348   0.441941738   0.618718434
         28   0.088388348  -0.441941738   0.618718434
         29   0.441941738   0.088388348   0.618718434
         30  -0.088388348   0.441941738  -0.618718434
         31   0.441941738  -0.088388348  -0.618718434
         32  -0.441941738   0.088388348  -0.618718434
         33  -0.618718434  -0.441941738   0.088388348
         34  -0.441941738  -0.088388348  -0.618718434
         35  -0.618718434   0.441941738  -0.088388348
         36   0.618718434   0.441941738   0.088388348
         37  -0.088388348  -0.618718434   0.441941738
         38   0.441941738   0.088388348  -0.618718434
         39   0.088388348  -0.618718434  -0.441941738
         40   0.088388348   0.618718434   0.441941738
         41   0.441941738  -0.618718434   0.088388348
         42  -0.441941738  -0.618718434  -0.088388348
         43   0.441941738   0.618718434  -0.088388348
         44  -0.441941738   0.618718434   0.088388348
         45  -0.618718434   0.088388348   0.441941738
         46  -0.618718434  -0.088388348  -0.441941738
         47   0.618718434  -0.088388348   0.441941738
         48   0.618718434   0.088388348  -0.441941738

     Diagonalizing the dynamical matrix

     q = (   -0.088388348  -0.441941738   0.618718434 ) 

 **************************************************************************
     freq (    1) =       5.955160 [THz] =     198.642769 [cm-1]
     freq (    2) =       7.631237 [THz] =     254.550650 [cm-1]
     freq (    3) =       8.912459 [THz] =     297.287646 [cm-1]
 **************************************************************************

     Calculation of q =    0.0883883  -0.2651650   0.4419417
     [opt_tetra]  Optimized tetrahedron method is used.
 
     G-vector sticks info
     --------------------
     sticks:   dense  smooth     PW     G-vecs:    dense   smooth      PW
     Sum         559     283    121                 8801     3119     821
 
     Using Slab Decomposition
 

     Title: 
     Phonon                                                                     


     bravais-lattice index     =            0
     lattice parameter (alat)  =       5.3877  a.u.
     unit-cell volume          =     110.5871 (a.u.)^3
     number of atoms/cell      =            1
     number of atomic types    =            1
     number of electrons       =         3.00
     number of Kohn-Sham states=            6
     kinetic-energy cutoff     =      35.0000  Ry
     charge density cutoff     =     280.0000  Ry
     Exchange-correlation= PBE
                           (   1   4   3   4   0   0   0)

     celldm(1)=   5.387739  celldm(2)=   0.000000  celldm(3)=   0.000000
     celldm(4)=   0.000000  celldm(5)=   0.000000  celldm(6)=   0.000000

     crystal axes: (cart. coord. in units of alat)
               a(1) = (   0.000000   0.707107   0.707107 )  
               a(2) = (   0.707107   0.000000   0.707107 )  
               a(3) = (   0.707107   0.707107   0.000000 )  

     reciprocal axes: (cart. coord. in units 2 pi/alat)
               b(1) = ( -0.707107  0.707107  0.707107 )  
               b(2) = (  0.707107 -0.707107  0.707107 )  
               b(3) = (  0.707107  0.707107 -0.707107 )  


     PseudoPot. # 1 for Al read from file:
     ./Al.pbe-n-rrkjus_psl.0.1.UPF
     MD5 check sum: 6479f6627750700cef6db36d98bbe09a
     Pseudo is Ultrasoft + core correction, Zval =  3.0
     Generated using "atomic" code by A. Dal Corso  v.5.0.99 svn rev. 10869
     Using radial grid of 1135 points,  4 beta functions with: 
                l(1) =   0
                l(2) =   0
                l(3) =   1
                l(4) =   1
     Q(r) pseudized with 0 coefficients 


     atomic species   valence    mass     pseudopotential
     Al                3.00    26.98154     Al( 1.00)

     48 Sym. Ops., with inversion, found



   Cartesian axes

     site n.     atom                  positions (alat units)
         1        Al     tau(   1) = (   0.0000000   0.0000000   0.0000000  )

     number of k points=  1024 (tetrahedron method)

     Number of k-points >= 100: set verbosity='high' to print them.

     Dense  grid:     8801 G-vectors     FFT dimensions: (  30,  30,  30)

     Smooth grid:     3119 G-vectors     FFT dimensions: (  24,  24,  24)

     Estimated max dynamical RAM per process >       4.48 MB

     Estimated total dynamical RAM >     286.84 MB

     Check: negative core charge=   -0.000003

     The potential is recalculated from file :
     ./_ph0/pwscf.q_7/pwscf.save/charge-density

     Starting wfcs are    4 atomic +    2 random wfcs

     Band Structure Calculation
     Davidson diagonalization with overlap

     ethr =  3.33E-10,  avg # of iterations = 17.4

     total cpu time spent up to now is        2.5 secs

     End of band structure calculation

     Number of k-points >= 100: set verbosity='high' to print the bands.

     the Fermi energy is     7.9299 ev
 
     [dfpt_tetra]  Dos(E_F)[/Ry] :   0.4128430E+01

     Phonon                                                                     

     bravais-lattice index     =            0
     lattice parameter (alat)  =       5.3877  a.u.
     unit-cell volume          =     110.5871 (a.u.)^3
     number of atoms/cell      =            1
     number of atomic types    =            1
     kinetic-energy cut-off    =      35.0000  Ry
     charge density cut-off    =     280.0000  Ry
     convergence threshold     =      1.0E-15
     beta                      =       0.3000
     number of iterations used =            4
     Exchange-correlation= PBE
                           (   1   4   3   4   0   0   0)


     celldm(1)=    5.38774  celldm(2)=    0.00000  celldm(3)=    0.00000
[...]
      thresh= 1.929E-06 alpha_mix =  0.300 |ddv_scf|^2 =  5.781E-12

      iter #   5 total cpu time :    27.5 secs   av.it.:   3.0
      thresh= 2.404E-07 alpha_mix =  0.300 |ddv_scf|^2 =  8.939E-13

      iter #   6 total cpu time :    27.6 secs   av.it.:   2.9
      thresh= 9.455E-08 alpha_mix =  0.300 |ddv_scf|^2 =  3.822E-15

      iter #   7 total cpu time :    27.7 secs   av.it.:   3.1
      thresh= 6.182E-09 alpha_mix =  0.300 |ddv_scf|^2 =  9.551E-16

     End of self-consistent calculation

     Convergence has been achieved 
 
     Number of q in the star =    8
     List of q in the star:
          1   0.265165043   0.265165043   0.265165043
          2   0.265165043  -0.265165043   0.265165043
          3  -0.265165043   0.265165043   0.265165043
          4  -0.265165043  -0.265165043  -0.265165043
          5   0.265165043   0.265165043  -0.265165043
          6  -0.265165043  -0.265165043   0.265165043
          7  -0.265165043   0.265165043  -0.265165043
          8   0.265165043  -0.265165043  -0.265165043

     Diagonalizing the dynamical matrix

     q = (    0.265165043   0.265165043   0.265165043 ) 

 **************************************************************************
     freq (    1) =       4.294970 [THz] =     143.264784 [cm-1]
     freq (    2) =       4.294970 [THz] =     143.264784 [cm-1]
     freq (    3) =       9.013771 [THz] =     300.667053 [cm-1]
 **************************************************************************

     Calculation of q =   -0.2651650  -0.2651650   0.7954951
     [opt_tetra]  Optimized tetrahedron method is used.
 
     G-vector sticks info
     --------------------
     sticks:   dense  smooth     PW     G-vecs:    dense   smooth      PW
     Sum         559     283    121                 8801     3119     941
 
     Using Slab Decomposition
 

     Title: 
     Phonon                                                                     


     bravais-lattice index     =            0
     lattice parameter (alat)  =       5.3877  a.u.
     unit-cell volume          =     110.5871 (a.u.)^3
     number of atoms/cell      =            1
     number of atomic types    =            1
     number of electrons       =         3.00
     number of Kohn-Sham states=            6
     kinetic-energy cutoff     =      35.0000  Ry
     charge density cutoff     =     280.0000  Ry
     Exchange-correlation= PBE
                           (   1   4   3   4   0   0   0)

     celldm(1)=   5.387739  celldm(2)=   0.000000  celldm(3)=   0.000000
     celldm(4)=   0.000000  celldm(5)=   0.000000  celldm(6)=   0.000000

     crystal axes: (cart. coord. in units of alat)
               a(1) = (   0.000000   0.707107   0.707107 )  
               a(2) = (   0.707107   0.000000   0.707107 )  
               a(3) = (   0.707107   0.707107   0.000000 )  

     reciprocal axes: (cart. coord. in units 2 pi/alat)
               b(1) = ( -0.707107  0.707107  0.707107 )  
               b(2) = (  0.707107 -0.707107  0.707107 )  
               b(3) = (  0.707107  0.707107 -0.707107 )  


     PseudoPot. # 1 for Al read from file:
     ./Al.pbe-n-rrkjus_psl.0.1.UPF
     MD5 check sum: 6479f6627750700cef6db36d98bbe09a
     Pseudo is Ultrasoft + core correction, Zval =  3.0
     Generated using "atomic" code by A. Dal Corso  v.5.0.99 svn rev. 10869
     Using radial grid of 1135 points,  4 beta functions with: 
                l(1) =   0
                l(2) =   0
                l(3) =   1
                l(4) =   1
     Q(r) pseudized with 0 coefficients 


     atomic species   valence    mass     pseudopotential
     Al                3.00    26.98154     Al( 1.00)

     48 Sym. Ops., with inversion, found



   Cartesian axes

     site n.     atom                  positions (alat units)
         1        Al     tau(   1) = (   0.0000000   0.0000000   0.0000000  )

     number of k points=   576 (tetrahedron method)

     Number of k-points >= 100: set verbosity='high' to print them.

     Dense  grid:     8801 G-vectors     FFT dimensions: (  30,  30,  30)

     Smooth grid:     3119 G-vectors     FFT dimensions: (  24,  24,  24)

     Estimated max dynamical RAM per process >       4.28 MB

     Estimated total dynamical RAM >     273.83 MB

     Check: negative core charge=   -0.000003

     The potential is recalculated from file :
     ./_ph0/pwscf.q_10/pwscf.save/charge-density

     Starting wfcs are    4 atomic +    2 random wfcs

     Band Structure Calculation
     Davidson diagonalization with overlap

     ethr =  3.33E-10,  avg # of iterations = 17.6

     total cpu time spent up to now is        3.4 secs

     End of band structure calculation

     Number of k-points >= 100: set verbosity='high' to print the bands.

     the Fermi energy is     7.9299 ev
 
     [dfpt_tetra]  Dos(E_F)[/Ry] :   0.4128430E+01

     Phonon                                                                     

     bravais-lattice index     =            0
     lattice parameter (alat)  =       5.3877  a.u.
     unit-cell volume          =     110.5871 (a.u.)^3
     number of atoms/cell      =            1
     number of atomic types    =            1
     kinetic-energy cut-off    =      35.0000  Ry
     charge density cut-off    =     280.0000  Ry
     convergence threshold     =      1.0E-15
     beta                      =       0.3000
     number of iterations used =            4
     Exchange-correlation= PBE
                           (   1   4   3   4   0   0   0)


     celldm(1)=    5.38774  celldm(2)=    0.00000  celldm(3)=    0.00000
     celldm(4)=    0.00000  celldm(5)=    0.00000  celldm(6)=    0.00000

     crystal axes: (cart. coord. in units of alat)
               a(1) = (  0.0000  0.7071  0.7071 )  
               a(2) = (  0.7071  0.0000  0.7071 )  
               a(3) = (  0.7071  0.7071  0.0000 )  

     reciprocal axes: (cart. coord. in units 2 pi/alat)
               b(1) = ( -0.7071  0.7071  0.7071 )  
               b(2) = (  0.7071 -0.7071  0.7071 )  
               b(3) = (  0.7071  0.7071 -0.7071 )  


     Atoms inside the unit cell: 

     Cartesian axes

     site n.  atom      mass           positions (alat units)
        1  Al     26.9815   tau(    1) = (    0.00000    0.00000    0.00000  )

     Computing dynamical matrix for 
                    q = (  -0.2651650  -0.2651650   0.7954951 )
 
      2 Sym.Ops. (no q -> -q+G )


     G cutoff =  205.8787  (   8801 G-vectors)     FFT grid: ( 30, 30, 30)
     G cutoff =  102.9393  (   3119 G-vectors)  smooth grid: ( 24, 24, 24)
     number of k points=   576

     PseudoPot. # 1 for Al read from file:
     ./Al.pbe-n-rrkjus_psl.0.1.UPF
     MD5 check sum: 6479f6627750700cef6db36d98bbe09a
     Pseudo is Ultrasoft + core correction, Zval =  3.0
     Generated using "atomic" code by A. Dal Corso  v.5.0.99 svn rev. 10869
     Using radial grid of 1135 points,  4 beta functions with: 
                l(1) =   0
                l(2) =   0
                l(3) =   1
                l(4) =   1
     Q(r) pseudized with 0 coefficients 



     Atomic displacements:
     There are    3 irreducible representations

     Representation     1      1 modes -  To be done

     Representation     2      1 modes -  To be done

     Representation     3      1 modes -  To be done



     Alpha used in Ewald sum =   2.8000
     PHONON       :     24.77s CPU     28.33s WALL



     Representation #   1 mode #   1

     Self-consistent Calculation

      iter #   1 total cpu time :    28.4 secs   av.it.:   1.8
      thresh= 1.000E-02 alpha_mix =  0.300 |ddv_scf|^2 =  5.823E-06

      iter #   2 total cpu time :    28.5 secs   av.it.:   2.5
      thresh= 2.413E-04 alpha_mix =  0.300 |ddv_scf|^2 =  5.492E-07

      iter #   3 total cpu time :    28.5 secs   av.it.:   2.6
      thresh= 7.411E-05 alpha_mix =  0.300 |ddv_scf|^2 =  1.562E-07

      iter #   4 total cpu time :    28.6 secs   av.it.:   2.7
      thresh= 3.952E-05 alpha_mix =  0.300 |ddv_scf|^2 =  2.067E-09

      iter #   5 total cpu time :    28.7 secs   av.it.:   2.9
      thresh= 4.547E-06 alpha_mix =  0.300 |ddv_scf|^2 =  3.806E-11

      iter #   6 total cpu time :    28.8 secs   av.it.:   2.9
      thresh= 6.169E-07 alpha_mix =  0.300 |ddv_scf|^2 =  1.248E-11

      iter #   7 total cpu time :    28.8 secs   av.it.:   2.8
      thresh= 3.532E-07 alpha_mix =  0.300 |ddv_scf|^2 =  1.881E-13

      iter #   8 total cpu time :    28.9 secs   av.it.:   3.0
      thresh= 4.337E-08 alpha_mix =  0.300 |ddv_scf|^2 =  2.704E-14

      iter #   9 total cpu time :    29.0 secs   av.it.:   2.8
      thresh= 1.644E-08 alpha_mix =  0.300 |ddv_scf|^2 =  3.487E-15

      iter #  10 total cpu time :    29.1 secs   av.it.:   2.8
      thresh= 5.905E-09 alpha_mix =  0.300 |ddv_scf|^2 =  1.595E-16

     End of self-consistent calculation

     Convergence has been achieved 


     Representation #   2 mode #   2

     Self-consistent Calculation

      iter #   1 total cpu time :    29.2 secs   av.it.:   1.8
      thresh= 1.000E-02 alpha_mix =  0.300 |ddv_scf|^2 =  7.388E-06

      iter #   2 total cpu time :    29.2 secs   av.it.:   2.6
      thresh= 2.718E-04 alpha_mix =  0.300 |ddv_scf|^2 =  7.703E-07

      iter #   3 total cpu time :    29.3 secs   av.it.:   2.7
      thresh= 8.776E-05 alpha_mix =  0.300 |ddv_scf|^2 =  1.516E-07

      iter #   4 total cpu time :    29.4 secs   av.it.:   2.7
      thresh= 3.893E-05 alpha_mix =  0.300 |ddv_scf|^2 =  1.671E-08

      iter #   5 total cpu time :    29.5 secs   av.it.:   2.8
      thresh= 1.293E-05 alpha_mix =  0.300 |ddv_scf|^2 =  6.998E-11

      iter #   6 total cpu time :    29.5 secs   av.it.:   3.0
      thresh= 8.366E-07 alpha_mix =  0.300 |ddv_scf|^2 =  1.419E-11

      iter #   7 total cpu time :    29.6 secs   av.it.:   2.8
      thresh= 3.767E-07 alpha_mix =  0.300 |ddv_scf|^2 =  2.002E-12

      iter #   8 total cpu time :    29.7 secs   av.it.:   2.8
      thresh= 1.415E-07 alpha_mix =  0.300 |ddv_scf|^2 =  6.044E-15

      iter #   9 total cpu time :    29.8 secs   av.it.:   3.1
      thresh= 7.774E-09 alpha_mix =  0.300 |ddv_scf|^2 =  1.856E-15

      iter #  10 total cpu time :    29.8 secs   av.it.:   2.7
      thresh= 4.308E-09 alpha_mix =  0.300 |ddv_scf|^2 =  2.404E-16

     End of self-consistent calculation

     Convergence has been achieved 


     Representation #   3 mode #   3

     Self-consistent Calculation

      iter #   1 total cpu time :    29.9 secs   av.it.:   1.1
      thresh= 1.000E-02 alpha_mix =  0.300 |ddv_scf|^2 =  8.046E-07

      iter #   2 total cpu time :    30.0 secs   av.it.:   2.5
      thresh= 8.970E-05 alpha_mix =  0.300 |ddv_scf|^2 =  3.871E-07

      iter #   3 total cpu time :    30.1 secs   av.it.:   2.6
      thresh= 6.221E-05 alpha_mix =  0.300 |ddv_scf|^2 =  8.586E-10

      iter #   4 total cpu time :    30.2 secs   av.it.:   2.9
      thresh= 2.930E-06 alpha_mix =  0.300 |ddv_scf|^2 =  3.750E-11

      iter #   5 total cpu time :    30.2 secs   av.it.:   2.8
      thresh= 6.124E-07 alpha_mix =  0.300 |ddv_scf|^2 =  7.044E-12

      iter #   6 total cpu time :    30.3 secs   av.it.:   2.8
      thresh= 2.654E-07 alpha_mix =  0.300 |ddv_scf|^2 =  2.099E-14

      iter #   7 total cpu time :    30.4 secs   av.it.:   3.0
      thresh= 1.449E-08 alpha_mix =  0.300 |ddv_scf|^2 =  5.866E-15

      iter #   8 total cpu time :    30.5 secs   av.it.:   2.7
      thresh= 7.659E-09 alpha_mix =  0.300 |ddv_scf|^2 =  1.405E-17

     End of self-consistent calculation

     Convergence has been achieved 
 
     Number of q in the star =   24
     List of q in the star:
          1  -0.265165043  -0.265165043   0.795495129
          2   0.795495129  -0.265165043  -0.265165043
          3  -0.265165043   0.795495129  -0.265165043
          4  -0.265165043   0.265165043   0.795495129
          5   0.265165043  -0.265165043   0.795495129
          6   0.795495129   0.265165043  -0.265165043
          7  -0.795495129   0.265165043   0.265165043
          8   0.795495129  -0.265165043   0.265165043
          9  -0.795495129  -0.265165043  -0.265165043
         10   0.265165043   0.795495129  -0.265165043
         11   0.265165043  -0.795495129   0.265165043
         12  -0.265165043   0.795495129   0.265165043
         13  -0.265165043  -0.795495129  -0.265165043
         14   0.265165043   0.265165043   0.795495129
         15   0.265165043   0.795495129   0.265165043
         16  -0.265165043  -0.795495129   0.265165043
         17   0.265165043  -0.795495129  -0.265165043
         18   0.265165043  -0.265165043  -0.795495129
         19   0.795495129   0.265165043   0.265165043
         20  -0.795495129   0.265165043  -0.265165043
         21  -0.795495129  -0.265165043   0.265165043
         22   0.265165043   0.265165043  -0.795495129
         23  -0.265165043  -0.265165043  -0.795495129
         24  -0.265165043   0.265165043  -0.795495129

     Diagonalizing the dynamical matrix

     q = (   -0.265165043  -0.265165043   0.795495129 ) 

 **************************************************************************
     freq (    1) =       5.347148 [THz] =     178.361664 [cm-1]
     freq (    2) =       7.550824 [THz] =     251.868387 [cm-1]
     freq (    3) =       9.115047 [THz] =     304.045230 [cm-1]
 **************************************************************************
 
     init_run     :      0.66s CPU      0.86s WALL (      10 calls)
     electrons    :      1.82s CPU      1.96s WALL (      10 calls)

     Called by init_run:
     wfcinit      :      0.00s CPU      0.02s WALL (      10 calls)
     potinit      :      0.28s CPU      0.45s WALL (      10 calls)
     hinit0       :      0.16s CPU      0.16s WALL (      10 calls)

     Called by electrons:
     c_bands      :      1.74s CPU      1.88s WALL (      10 calls)
     v_of_rho     :      0.11s CPU      0.11s WALL (      11 calls)
     newd         :      0.11s CPU      0.11s WALL (      11 calls)

     Called by c_bands:
     init_us_2    :      0.13s CPU      0.13s WALL (    2072 calls)
     cegterg      :      1.09s CPU      1.13s WALL (     138 calls)

     Called by *egterg:
     cdiaghg      :      0.16s CPU      0.17s WALL (    2069 calls)
     h_psi        :      3.07s CPU      3.19s WALL (   12507 calls)
     s_psi        :      0.11s CPU      0.12s WALL (   24317 calls)
     g_psi        :      0.01s CPU      0.01s WALL (    1969 calls)

     Called by h_psi:
     h_psi:calbec :      0.08s CPU      0.08s WALL (   12507 calls)
     vloc_psi     :      2.85s CPU      2.97s WALL (   12507 calls)
     add_vuspsi   :      0.06s CPU      0.06s WALL (   12507 calls)

     General routines
     calbec       :      0.12s CPU      0.13s WALL (   27277 calls)
     fft          :      1.32s CPU      1.34s WALL (    5438 calls)
     ffts         :      0.05s CPU      0.05s WALL (     906 calls)
     fftw         :      3.25s CPU      3.39s WALL (  101576 calls)
     interpolate  :      0.31s CPU      0.31s WALL (     642 calls)
     davcio       :      0.01s CPU      0.03s WALL (      30 calls)
 
     Parallel routines
 
     PHONON       :     26.76s CPU     30.55s WALL

     INITIALIZATION: 
     phq_setup    :      0.43s CPU      0.58s WALL (      10 calls)
     phq_init     :      1.74s CPU      1.81s WALL (      10 calls)
 
     phq_init     :      1.74s CPU      1.81s WALL (      10 calls)
     set_drhoc    :      0.04s CPU      0.04s WALL (      30 calls)
     init_vloc    :      0.02s CPU      0.02s WALL (      11 calls)
     init_us_1    :      0.11s CPU      0.11s WALL (      11 calls)
     init_us_2    :      0.13s CPU      0.13s WALL (    2072 calls)
     newd         :      0.11s CPU      0.11s WALL (      11 calls)
     dvanqq       :      0.58s CPU      0.59s WALL (      10 calls)
     drho         :      0.77s CPU      0.78s WALL (      10 calls)
     drhous       :      0.08s CPU      0.09s WALL (      10 calls)
     nldyntot     :      0.00s CPU      0.00s WALL (      10 calls)
 
     DYNAMICAL MATRIX:
     dynmat0      :      0.32s CPU      0.38s WALL (      10 calls)
     dynmat_us    :      0.19s CPU      0.19s WALL (      10 calls)
     addusdynmat  :      0.00s CPU      0.00s WALL (      10 calls)
     d2ionq       :      0.00s CPU      0.00s WALL (      10 calls)
     dynmatcc     :      0.10s CPU      0.10s WALL (      10 calls)
     phqscf       :     21.44s CPU     23.41s WALL (      10 calls)
     dynmatrix    :      0.01s CPU      0.05s WALL (      10 calls)
 
     phqscf       :     21.44s CPU     23.41s WALL (      10 calls)
     solve_linter :     21.36s CPU     23.12s WALL (      28 calls)
     sth_kernel   :      5.94s CPU      6.16s WALL (     281 calls)
     h_prec       :      0.01s CPU      0.01s WALL (    1480 calls)
     apply_dpot_b :      0.80s CPU      0.84s WALL (    1360 calls)
     ortho        :      0.06s CPU      0.07s WALL (    1510 calls)
     cgsolve      :      2.76s CPU      2.87s WALL (    1510 calls)
     incdrhoscf   :      0.92s CPU      0.96s WALL (    1510 calls)
                                        0.00s GPU  (    1510 calls)
     addusddens   :      4.79s CPU      4.80s WALL (     309 calls)
     dv_of_drho   :      2.59s CPU      2.60s WALL (     296 calls)
     mix_pot      :      0.42s CPU      0.43s WALL (     281 calls)
     drhodv       :      0.04s CPU      0.04s WALL (      28 calls)
     psymdvscf    :      0.54s CPU      0.54s WALL (     217 calls)
     newdq        :      4.63s CPU      4.63s WALL (     281 calls)
     adddvscf     :      0.02s CPU      0.02s WALL (    1360 calls)
     com_dvloc    :      0.02s CPU      0.02s WALL (     264 calls)
                                        0.00s GPU  (     264 calls)
     addcore      :      0.18s CPU      0.19s WALL (     416 calls)
                                        0.00s GPU  (     416 calls)
     drhodvus     :      0.02s CPU      0.02s WALL (      28 calls)
 
     dvqpsi_us    :      0.10s CPU      0.11s WALL (     150 calls)
                                        0.00s GPU  (     150 calls)
     dvqpsi_us_on :      0.01s CPU      0.01s WALL (     150 calls)
 
     add_vuspsi   :      0.06s CPU      0.06s WALL (   12507 calls)
     addusdbec    :      0.02s CPU      0.02s WALL (    1660 calls)
 
     drhodvus     :      0.02s CPU      0.02s WALL (      28 calls)
 
      General routines
     calbec       :      0.12s CPU      0.13s WALL (   27277 calls)
     fft          :      1.32s CPU      1.34s WALL (    5438 calls)
     ffts         :      0.05s CPU      0.05s WALL (     906 calls)
     fftw         :      3.25s CPU      3.39s WALL (  101576 calls)
     davcio       :      0.01s CPU      0.03s WALL (      30 calls)
     write_rec    :      0.79s CPU      2.30s WALL (     309 calls)
 
      Additional routines
     ch_psi       :      2.67s CPU      2.78s WALL (   10300 calls)
     last         :      0.29s CPU      0.30s WALL (   10300 calls)
     Hesh         :      0.02s CPU      0.02s WALL (   10300 calls)
     ch_psi_all_k :      0.23s CPU      0.23s WALL (   10300 calls)
                                        0.00s GPU  (   10300 calls)
     ch_psi_calbe :      0.05s CPU      0.06s WALL (   10300 calls)
                                        0.00s GPU  (   10300 calls)
     h_psi_bgrp   :      3.09s CPU      3.22s WALL (   12507 calls)
     h_psi        :      3.07s CPU      3.19s WALL (   12507 calls)
     h_psi:pot    :      3.03s CPU      3.15s WALL (   12507 calls)
     h_psi:calbec :      0.08s CPU      0.08s WALL (   12507 calls)
     s_psi_bgrp   :      0.18s CPU      0.19s WALL (   24317 calls)
     s_psi        :      0.11s CPU      0.12s WALL (   24317 calls)
 
 
     PHONON       :     26.76s CPU     30.55s WALL

 
   This run was terminated on:   2:39: 9  13Mar2026            

=------------------------------------------------------------------------------=
   JOB DONE.
=------------------------------------------------------------------------------=
