--------------------------------------------------------------------------
Open MPI's OFI driver detected multiple equidistant NICs from the current process,
but had insufficient information to ensure MPI processes fairly pick a NIC for use.
This may negatively impact performance. A more modern PMIx server is necessary to
resolve this issue.

Note: This message is displayed only when the OFI component's verbosity level is
1095567536 or higher.
--------------------------------------------------------------------------
--------------------------------------------------------------------------
WARNING: There was an error initializing an OpenFabrics device.

  Local host:   macloud1
  Local device: mlx4_0
--------------------------------------------------------------------------

     Program PROJWFC v.6.7GPU starts on 28Jun2022 at  1:28:50 

     This program is part of the open-source Quantum ESPRESSO suite
     for quantum simulation of materials; please cite
         "P. Giannozzi et al., J. Phys.:Condens. Matter 21 395502 (2009);
         "P. Giannozzi et al., J. Phys.:Condens. Matter 29 465901 (2017);
         "P. Giannozzi et al., J. Chem. Phys. 152 154105 (2020);
          URL http://www.quantum-espresso.org", 
     in publications or presentations arising from this work. More details at
     http://www.quantum-espresso.org/quote

     Parallel version (MPI & OpenMP), running on      24 processor cores
     Number of MPI processes:                24
     Threads/MPI process:                     1

     MPI processes distributed on     1 nodes
     K-points division:     npool     =      24

     Reading xml data from directory:

     ./pwscf.save/

     IMPORTANT: XC functional enforced from input :
     Exchange-correlation= PBE
                           (   1   4   3   4   0   0   0)
     Any further DFT definition will be discarded
     Please, verify this is what you really want


     G-vector sticks info
     --------------------
     sticks:   dense  smooth     PW     G-vecs:    dense   smooth      PW
     Sum         559     283     97                 8801     3119     645

     Using Slab Decomposition


     Check: negative core charge=   -0.000003

     Optimized tetrahedron method (read from file) 
     [opt_tetra]  Optimized tetrahedron method is used.

     Calling projwave .... 

     Subspace diagonalization in iterative solution of the eigenvalue problem:
     a serial algorithm will be used


  Problem Sizes 
  natomwfc =            4
  nbnd     =           10
  nkstot   =          145
  npwx     =          396
  nkb      =            8

At line 106 of file init_us_2_base.f90
Fortran runtime warning: An array temporary was created
At line 106 of file init_us_2_base.f90
Fortran runtime warning: An array temporary was created
At line 106 of file init_us_2_base.f90
Fortran runtime warning: An array temporary was created
At line 106 of file init_us_2_base.f90
Fortran runtime warning: An array temporary was created
At line 106 of file init_us_2_base.f90
Fortran runtime warning: An array temporary was created
At line 106 of file init_us_2_base.f90
Fortran runtime warning: An array temporary was created
At line 106 of file init_us_2_base.f90
Fortran runtime warning: An array temporary was created
At line 106 of file init_us_2_base.f90
Fortran runtime warning: An array temporary was created
At line 106 of file init_us_2_base.f90
Fortran runtime warning: An array temporary was created
At line 106 of file init_us_2_base.f90
Fortran runtime warning: An array temporary was created
At line 106 of file init_us_2_base.f90
Fortran runtime warning: An array temporary was created
At line 106 of file init_us_2_base.f90
Fortran runtime warning: An array temporary was created
At line 106 of file init_us_2_base.f90
Fortran runtime warning: An array temporary was created
At line 106 of file init_us_2_base.f90
Fortran runtime warning: An array temporary was created
At line 106 of file init_us_2_base.f90
Fortran runtime warning: An array temporary was created
At line 106 of file init_us_2_base.f90
Fortran runtime warning: An array temporary was created
At line 106 of file init_us_2_base.f90
Fortran runtime warning: An array temporary was created
At line 106 of file init_us_2_base.f90
Fortran runtime warning: An array temporary was created
At line 106 of file init_us_2_base.f90
Fortran runtime warning: An array temporary was created
At line 106 of file init_us_2_base.f90
Fortran runtime warning: An array temporary was created
At line 106 of file init_us_2_base.f90
Fortran runtime warning: An array temporary was created
At line 106 of file init_us_2_base.f90
Fortran runtime warning: An array temporary was created
At line 106 of file init_us_2_base.f90
Fortran runtime warning: An array temporary was created
At line 106 of file init_us_2_base.f90
Fortran runtime warning: An array temporary was created

     Atomic states used for projection
     (read from pseudopotential files):

     state #   1: atom   1 (Al ), wfc  1 (l=0 m= 1)
     state #   2: atom   1 (Al ), wfc  2 (l=1 m= 1)
     state #   3: atom   1 (Al ), wfc  2 (l=1 m= 2)
     state #   4: atom   1 (Al ), wfc  2 (l=1 m= 3)

 k =   0.0000000000  0.0000000000  0.0000000000
==== e(   1) =    -3.20813 eV ==== 
     psi = 0.999*[#   1]
    |psi|^2 = 0.999
==== e(   2) =    20.64128 eV ==== 

    |psi|^2 = 0.000
==== e(   3) =    20.64128 eV ==== 

    |psi|^2 = 0.000
==== e(   4) =    20.64128 eV ==== 

    |psi|^2 = 0.000
==== e(   5) =    22.14607 eV ==== 
     psi = 0.307*[#   2]+0.307*[#   3]+0.307*[#   4]
    |psi|^2 = 0.922
==== e(   6) =    22.14607 eV ==== 
     psi = 0.307*[#   2]+0.307*[#   3]+0.307*[#   4]
    |psi|^2 = 0.922
==== e(   7) =    22.14607 eV ==== 
     psi = 0.307*[#   2]+0.307*[#   3]+0.307*[#   4]
    |psi|^2 = 0.922
==== e(   8) =    24.49734 eV ==== 

    |psi|^2 = 0.000
==== e(   9) =    27.46654 eV ==== 

    |psi|^2 = 0.000
==== e(  10) =    27.46654 eV ==== 

    |psi|^2 = 0.000

 k =   0.0441941738  0.0441941738 -0.0441941738
==== e(   1) =    -3.10145 eV ==== 
     psi = 0.878*[#   1]+0.040*[#   2]+0.040*[#   3]+0.040*[#   4]
    |psi|^2 = 0.999
==== e(   2) =    18.85040 eV ==== 
     psi = 0.119*[#   2]+0.119*[#   3]+0.119*[#   4]+0.049*[#   1]
    |psi|^2 = 0.405
==== e(   3) =    20.26728 eV ==== 
     psi = 0.084*[#   2]+0.084*[#   3]+0.084*[#   4]
    |psi|^2 = 0.253
==== e(   4) =    20.26728 eV ==== 
     psi = 0.084*[#   2]+0.084*[#   3]+0.084*[#   4]
    |psi|^2 = 0.253
==== e(   5) =    22.68560 eV ==== 
     psi = 0.225*[#   2]+0.225*[#   3]+0.225*[#   4]
    |psi|^2 = 0.674
==== e(   6) =    22.68560 eV ==== 
     psi = 0.225*[#   2]+0.225*[#   3]+0.225*[#   4]
    |psi|^2 = 0.674
==== e(   7) =    22.75767 eV ==== 
     psi = 0.147*[#   2]+0.147*[#   3]+0.147*[#   4]+0.060*[#   1]
    |psi|^2 = 0.502
==== e(   8) =    25.60328 eV ==== 
     psi = 0.008*[#   2]+0.008*[#   3]+0.008*[#   4]+0.003*[#   1]
    |psi|^2 = 0.027
==== e(   9) =    26.86358 eV ==== 
     psi = 0.004*[#   2]+0.004*[#   3]+0.004*[#   4]
    |psi|^2 = 0.013
==== e(  10) =    26.86358 eV ==== 
     psi = 0.004*[#   2]+0.004*[#   3]+0.004*[#   4]
    |psi|^2 = 0.013

 k =   0.0883883476  0.0883883476 -0.0883883476
==== e(   1) =    -2.78191 eV ==== 
     psi = 0.666*[#   1]+0.111*[#   2]+0.111*[#   3]+0.111*[#   4]
    |psi|^2 = 0.999
==== e(   2) =    16.32537 eV ==== 
     psi = 0.207*[#   1]+0.140*[#   2]+0.140*[#   3]+0.140*[#   4]
    |psi|^2 = 0.627
==== e(   3) =    19.69707 eV ==== 
     psi = 0.153*[#   2]+0.153*[#   3]+0.153*[#   4]
    |psi|^2 = 0.460
==== e(   4) =    19.69707 eV ==== 
     psi = 0.153*[#   2]+0.153*[#   3]+0.153*[#   4]
    |psi|^2 = 0.460
==== e(   5) =    22.75153 eV ==== 
     psi = 0.097*[#   1]+0.065*[#   2]+0.065*[#   3]+0.065*[#   4]
    |psi|^2 = 0.293
==== e(   6) =    23.69108 eV ==== 
     psi = 0.165*[#   2]+0.165*[#   3]+0.165*[#   4]
    |psi|^2 = 0.496
==== e(   7) =    23.69108 eV ==== 
     psi = 0.165*[#   2]+0.165*[#   3]+0.165*[#   4]
    |psi|^2 = 0.496
==== e(   8) =    25.70680 eV ==== 
     psi = 0.003*[#   2]+0.003*[#   3]+0.003*[#   4]
    |psi|^2 = 0.010
==== e(   9) =    25.70680 eV ==== 
     psi = 0.003*[#   2]+0.003*[#   3]+0.003*[#   4]
    |psi|^2 = 0.010
==== e(  10) =    27.93641 eV ==== 
     psi = 0.011*[#   1]+0.007*[#   2]+0.007*[#   3]+0.007*[#   4]
    |psi|^2 = 0.033

 k =   0.1325825215  0.1325825215 -0.1325825215
==== e(   1) =    -2.25093 eV ==== 
     psi = 0.511*[#   1]+0.163*[#   2]+0.163*[#   3]+0.163*[#   4]
    |psi|^2 = 0.999
==== e(   2) =    13.82137 eV ==== 
     psi = 0.373*[#   1]+0.132*[#   2]+0.132*[#   3]+0.132*[#   4]
    |psi|^2 = 0.770
==== e(   3) =    19.23408 eV ==== 
     psi = 0.190*[#   2]+0.190*[#   3]+0.190*[#   4]
    |psi|^2 = 0.569
==== e(   4) =    19.23408 eV ==== 
     psi = 0.190*[#   2]+0.190*[#   3]+0.190*[#   4]
    |psi|^2 = 0.569
==== e(   5) =    22.55392 eV ==== 
     psi = 0.087*[#   1]+0.030*[#   2]+0.030*[#   3]+0.030*[#   4]
    |psi|^2 = 0.176
==== e(   6) =    23.87483 eV ==== 
     psi = 0.104*[#   2]+0.104*[#   3]+0.104*[#   4]
    |psi|^2 = 0.313
==== e(   7) =    23.87483 eV ==== 
     psi = 0.104*[#   2]+0.104*[#   3]+0.104*[#   4]
    |psi|^2 = 0.313
==== e(   8) =    25.54119 eV ==== 
     psi = 0.034*[#   2]+0.034*[#   3]+0.034*[#   4]
    |psi|^2 = 0.101
==== e(   9) =    25.54119 eV ==== 
     psi = 0.034*[#   2]+0.034*[#   3]+0.034*[#   4]
    |psi|^2 = 0.101
==== e(  10) =    27.94387 eV ==== 
     psi = 0.019*[#   1]+0.004*[#   2]+0.004*[#   3]+0.004*[#   4]
    |psi|^2 = 0.032

 k =   0.1767766953  0.1767766953 -0.1767766953
==== e(   1) =    -1.51084 eV ==== 
     psi = 0.424*[#   1]+0.192*[#   2]+0.192*[#   3]+0.192*[#   4]
    |psi|^2 = 0.999
==== e(   2) =    11.43117 eV ==== 
     psi = 0.490*[#   1]+0.123*[#   2]+0.123*[#   3]+0.123*[#   4]
    |psi|^2 = 0.861
==== e(   3) =    18.92935 eV ==== 
     psi = 0.206*[#   2]+0.206*[#   3]+0.206*[#   4]
    |psi|^2 = 0.617
==== e(   4) =    18.92935 eV ==== 
     psi = 0.206*[#   2]+0.206*[#   3]+0.206*[#   4]
    |psi|^2 = 0.617
==== e(   5) =    22.39074 eV ==== 
     psi = 0.062*[#   1]+0.014*[#   2]+0.014*[#   3]+0.014*[#   4]
    |psi|^2 = 0.103
==== e(   6) =    22.79053 eV ==== 
     psi = 0.085*[#   2]+0.085*[#   3]+0.085*[#   4]
    |psi|^2 = 0.254
==== e(   7) =    22.79053 eV ==== 
     psi = 0.085*[#   2]+0.085*[#   3]+0.085*[#   4]
    |psi|^2 = 0.254
==== e(   8) =    26.80354 eV ==== 
     psi = 0.020*[#   1]+0.003*[#   2]+0.003*[#   3]+0.003*[#   4]
    |psi|^2 = 0.028
==== e(   9) =    26.92747 eV ==== 
     psi = 0.040*[#   2]+0.040*[#   3]+0.040*[#   4]
    |psi|^2 = 0.121
==== e(  10) =    26.92747 eV ==== 
     psi = 0.040*[#   2]+0.040*[#   3]+0.040*[#   4]
    |psi|^2 = 0.121

 k =   0.2209708691  0.2209708691 -0.2209708691
==== e(   1) =    -0.56483 eV ==== 
     psi = 0.386*[#   1]+0.204*[#   2]+0.204*[#   3]+0.204*[#   4]
    |psi|^2 = 0.998
==== e(   2) =     9.18761 eV ==== 
     psi = 0.556*[#   1]+0.121*[#   2]+0.121*[#   3]+0.121*[#   4]
    |psi|^2 = 0.917
==== e(   3) =    18.79581 eV ==== 
     psi = 0.208*[#   2]+0.208*[#   3]+0.208*[#   4]
    |psi|^2 = 0.624
==== e(   4) =    18.79581 eV ==== 
     psi = 0.208*[#   2]+0.208*[#   3]+0.208*[#   4]
    |psi|^2 = 0.624
==== e(   5) =    21.71758 eV ==== 
     psi = 0.096*[#   2]+0.096*[#   3]+0.096*[#   4]
    |psi|^2 = 0.287
==== e(   6) =    21.71758 eV ==== 
     psi = 0.096*[#   2]+0.096*[#   3]+0.096*[#   4]
    |psi|^2 = 0.287
==== e(   7) =    22.34679 eV ==== 
     psi = 0.039*[#   1]+0.006*[#   2]+0.006*[#   3]+0.006*[#   4]
    |psi|^2 = 0.058
==== e(   8) =    25.71602 eV ==== 
     psi = 0.018*[#   1]+0.002*[#   2]+0.002*[#   3]+0.002*[#   4]
    |psi|^2 = 0.023
==== e(   9) =    28.60334 eV ==== 
     psi = 0.028*[#   2]+0.028*[#   3]+0.028*[#   4]
    |psi|^2 = 0.083
==== e(  10) =    28.60334 eV ==== 
     psi = 0.028*[#   2]+0.028*[#   3]+0.028*[#   4]
    |psi|^2 = 0.083

 k =   0.2651650429  0.2651650429 -0.2651650429
==== e(   1) =     0.58309 eV ==== 
     psi = 0.383*[#   1]+0.205*[#   2]+0.205*[#   3]+0.205*[#   4]
    |psi|^2 = 0.997
==== e(   2) =     7.10748 eV ==== 
     psi = 0.578*[#   1]+0.125*[#   2]+0.125*[#   3]+0.125*[#   4]
    |psi|^2 = 0.953
==== e(   3) =    18.83816 eV ==== 
     psi = 0.201*[#   2]+0.201*[#   3]+0.201*[#   4]
    |psi|^2 = 0.602
==== e(   4) =    18.83816 eV ==== 
     psi = 0.201*[#   2]+0.201*[#   3]+0.201*[#   4]
    |psi|^2 = 0.602
==== e(   5) =    20.79218 eV ==== 
     psi = 0.114*[#   2]+0.114*[#   3]+0.114*[#   4]
    |psi|^2 = 0.341
==== e(   6) =    20.79218 eV ==== 
     psi = 0.114*[#   2]+0.114*[#   3]+0.114*[#   4]
    |psi|^2 = 0.341
==== e(   7) =    22.46252 eV ==== 
     psi = 0.023*[#   1]+0.003*[#   2]+0.003*[#   3]+0.003*[#   4]
    |psi|^2 = 0.031
==== e(   8) =    24.73981 eV ==== 
     psi = 0.016*[#   1]
    |psi|^2 = 0.018
==== e(   9) =    30.38285 eV ==== 
     psi = 0.016*[#   2]+0.016*[#   3]+0.016*[#   4]
    |psi|^2 = 0.047
==== e(  10) =    30.38285 eV ==== 
     psi = 0.016*[#   2]+0.016*[#   3]+0.016*[#   4]
    |psi|^2 = 0.047

 k =   0.3093592168  0.3093592168 -0.3093592168
==== e(   1) =     1.92739 eV ==== 
     psi = 0.399*[#   1]+0.198*[#   2]+0.198*[#   3]+0.198*[#   4]
    |psi|^2 = 0.994
==== e(   2) =     5.20203 eV ==== 
     psi = 0.573*[#   1]+0.134*[#   2]+0.134*[#   3]+0.134*[#   4]
    |psi|^2 = 0.974
==== e(   3) =    19.05855 eV ==== 
     psi = 0.188*[#   2]+0.188*[#   3]+0.188*[#   4]
    |psi|^2 = 0.563
==== e(   4) =    19.05855 eV ==== 
     psi = 0.188*[#   2]+0.188*[#   3]+0.188*[#   4]
    |psi|^2 = 0.563
==== e(   5) =    20.03701 eV ==== 
     psi = 0.133*[#   2]+0.133*[#   3]+0.133*[#   4]
    |psi|^2 = 0.400
==== e(   6) =    20.03701 eV ==== 
     psi = 0.133*[#   2]+0.133*[#   3]+0.133*[#   4]
    |psi|^2 = 0.400
==== e(   7) =    22.75454 eV ==== 
     psi = 0.013*[#   1]
    |psi|^2 = 0.015
==== e(   8) =    23.91274 eV ==== 
     psi = 0.014*[#   1]
    |psi|^2 = 0.015
==== e(   9) =    32.03778 eV ==== 
     psi = 0.006*[#   2]+0.006*[#   3]+0.006*[#   4]
    |psi|^2 = 0.017
==== e(  10) =    32.03778 eV ==== 
     psi = 0.006*[#   2]+0.006*[#   3]+0.006*[#   4]
    |psi|^2 = 0.017

 k =  -0.3535533906 -0.3535533906  0.3535533906
==== e(   1) =     3.35183 eV ==== 
     psi = 0.333*[#   2]+0.333*[#   3]+0.333*[#   4]
    |psi|^2 = 0.999
==== e(   2) =     3.59027 eV ==== 
     psi = 0.975*[#   1]
    |psi|^2 = 0.975
==== e(   3) =    19.44114 eV ==== 
     psi = 0.323*[#   2]+0.323*[#   3]+0.323*[#   4]
    |psi|^2 = 0.970
==== e(   4) =    19.44114 eV ==== 
     psi = 0.323*[#   2]+0.323*[#   3]+0.323*[#   4]
    |psi|^2 = 0.970
==== e(   5) =    19.47528 eV ==== 

    |psi|^2 = 0.000
==== e(   6) =    19.47528 eV ==== 

    |psi|^2 = 0.000
==== e(   7) =    23.14872 eV ==== 

    |psi|^2 = 0.000
==== e(   8) =    23.33728 eV ==== 
     psi = 0.024*[#   1]
    |psi|^2 = 0.024
==== e(   9) =    32.85110 eV ==== 

    |psi|^2 = 0.000
==== e(  10) =    32.85110 eV ==== 

    |psi|^2 = 0.000

 k =   0.0883883476  0.0000000000  0.0000000000
==== e(   1) =    -3.06591 eV ==== 
     psi = 0.844*[#   1]+0.052*[#   2]+0.052*[#   3]+0.052*[#   4]
    |psi|^2 = 0.999
==== e(   2) =    19.44199 eV ==== 
     psi = 0.156*[#   2]+0.156*[#   3]+0.156*[#   4]
    |psi|^2 = 0.467
==== e(   3) =    19.44199 eV ==== 
     psi = 0.156*[#   2]+0.156*[#   3]+0.156*[#   4]
    |psi|^2 = 0.467
==== e(   4) =    19.71538 eV ==== 

    |psi|^2 = 0.000
==== e(   5) =    21.81087 eV ==== 
     psi = 0.260*[#   2]+0.260*[#   3]+0.260*[#   4]+0.142*[#   1]
    |psi|^2 = 0.923
==== e(   6) =    23.55322 eV ==== 
     psi = 0.156*[#   2]+0.156*[#   3]+0.156*[#   4]
    |psi|^2 = 0.467
==== e(   7) =    23.55322 eV ==== 
     psi = 0.156*[#   2]+0.156*[#   3]+0.156*[#   4]
    |psi|^2 = 0.467
==== e(   8) =    25.70732 eV ==== 

    |psi|^2 = 0.000
==== e(   9) =    25.79024 eV ==== 
     psi = 0.009*[#   2]+0.009*[#   3]+0.009*[#   4]+0.006*[#   1]
    |psi|^2 = 0.034
==== e(  10) =    27.59780 eV ==== 

    |psi|^2 = 0.000

 k =   0.1325825215  0.0441941738 -0.0441941738
==== e(   1) =    -2.81738 eV ==== 
     psi = 0.679*[#   1]+0.107*[#   2]+0.107*[#   3]+0.107*[#   4]
    |psi|^2 = 0.999
==== e(   2) =    17.20273 eV ==== 
     psi = 0.153*[#   2]+0.153*[#   3]+0.153*[#   4]+0.091*[#   1]
    |psi|^2 = 0.549
==== e(   3) =    18.73108 eV ==== 
     psi = 0.200*[#   2]+0.200*[#   3]+0.200*[#   4]
    |psi|^2 = 0.601
==== e(   4) =    19.78794 eV ==== 
     psi = 0.064*[#   1]+0.046*[#   2]+0.046*[#   3]+0.046*[#   4]
    |psi|^2 = 0.201
==== e(   5) =    22.01994 eV ==== 
     psi = 0.234*[#   2]+0.234*[#   3]+0.234*[#   4]+0.114*[#   1]
    |psi|^2 = 0.817
==== e(   6) =    23.93737 eV ==== 
     psi = 0.085*[#   2]+0.085*[#   3]+0.085*[#   4]+0.023*[#   1]
    |psi|^2 = 0.278
==== e(   7) =    24.33526 eV ==== 
     psi = 0.015*[#   1]+0.011*[#   2]+0.011*[#   3]+0.011*[#   4]
    |psi|^2 = 0.047
==== e(   8) =    24.60730 eV ==== 
     psi = 0.117*[#   2]+0.117*[#   3]+0.117*[#   4]
    |psi|^2 = 0.351
==== e(   9) =    27.16351 eV ==== 
     psi = 0.002*[#   2]+0.002*[#   3]+0.002*[#   4]
    |psi|^2 = 0.005
==== e(  10) =    27.55456 eV ==== 
     psi = 0.010*[#   2]+0.010*[#   3]+0.010*[#   4]+0.003*[#   1]
    |psi|^2 = 0.033

 k =   0.1767766953  0.0883883476 -0.0883883476
==== e(   1) =    -2.35696 eV ==== 
     psi = 0.526*[#   1]+0.158*[#   2]+0.158*[#   3]+0.158*[#   4]
    |psi|^2 = 0.999
==== e(   2) =    14.70820 eV ==== 
     psi = 0.253*[#   1]+0.158*[#   2]+0.158*[#   3]+0.158*[#   4]
    |psi|^2 = 0.727
==== e(   3) =    18.18130 eV ==== 
     psi = 0.228*[#   2]+0.228*[#   3]+0.228*[#   4]
    |psi|^2 = 0.685
==== e(   4) =    19.50965 eV ==== 
     psi = 0.104*[#   1]+0.082*[#   2]+0.082*[#   3]+0.082*[#   4]
    |psi|^2 = 0.350
==== e(   5) =    22.50765 eV ==== 
     psi = 0.175*[#   2]+0.175*[#   3]+0.175*[#   4]+0.049*[#   1]
    |psi|^2 = 0.573
==== e(   6) =    23.39946 eV ==== 
     psi = 0.045*[#   2]+0.045*[#   3]+0.045*[#   4]
    |psi|^2 = 0.136
==== e(   7) =    23.85200 eV ==== 
     psi = 0.049*[#   1]+0.030*[#   2]+0.030*[#   3]+0.030*[#   4]
    |psi|^2 = 0.138
==== e(   8) =    25.30878 eV ==== 
     psi = 0.088*[#   2]+0.088*[#   3]+0.088*[#   4]
    |psi|^2 = 0.265
==== e(   9) =    26.64782 eV ==== 
     psi = 0.010*[#   2]+0.010*[#   3]+0.010*[#   4]
    |psi|^2 = 0.029
==== e(  10) =    29.10390 eV ==== 
     psi = 0.012*[#   1]+0.007*[#   2]+0.007*[#   3]+0.007*[#   4]
    |psi|^2 = 0.033

 k =   0.2209708691  0.1325825215 -0.1325825215
==== e(   1) =    -1.68671 eV ==== 
     psi = 0.430*[#   1]+0.190*[#   2]+0.190*[#   3]+0.190*[#   4]
    |psi|^2 = 0.999
==== e(   2) =    12.28824 eV ==== 
     psi = 0.392*[#   1]+0.149*[#   2]+0.149*[#   3]+0.149*[#   4]
    |psi|^2 = 0.839
==== e(   3) =    17.80428 eV ==== 
     psi = 0.244*[#   2]+0.244*[#   3]+0.244*[#   4]
    |psi|^2 = 0.732
==== e(   4) =    19.21433 eV ==== 
     psi = 0.110*[#   2]+0.110*[#   3]+0.110*[#   4]+0.089*[#   1]
    |psi|^2 = 0.418
==== e(   5) =    21.37542 eV ==== 
     psi = 0.109*[#   2]+0.109*[#   3]+0.109*[#   4]+0.034*[#   1]
    |psi|^2 = 0.359
==== e(   6) =    23.59473 eV ==== 
     psi = 0.046*[#   2]+0.046*[#   3]+0.046*[#   4]+0.023*[#   1]
    |psi|^2 = 0.161
==== e(   7) =    24.48152 eV ==== 
     psi = 0.057*[#   2]+0.057*[#   3]+0.057*[#   4]
    |psi|^2 = 0.171
==== e(   8) =    24.69397 eV ==== 
     psi = 0.054*[#   2]+0.054*[#   3]+0.054*[#   4]+0.014*[#   1]
    |psi|^2 = 0.178
==== e(   9) =    27.75236 eV ==== 
     psi = 0.029*[#   2]+0.029*[#   3]+0.029*[#   4]
    |psi|^2 = 0.088
==== e(  10) =    28.01607 eV ==== 
     psi = 0.014*[#   1]+0.003*[#   2]+0.003*[#   3]+0.003*[#   4]
    |psi|^2 = 0.024

 k =   0.2651650429  0.1767766953 -0.1767766953
==== e(   1) =    -0.80952 eV ==== 
     psi = 0.383*[#   1]+0.205*[#   2]+0.205*[#   3]+0.205*[#   4]
    |psi|^2 = 0.999
==== e(   2) =    10.00011 eV ==== 
     psi = 0.482*[#   1]+0.141*[#   2]+0.141*[#   3]+0.141*[#   4]
    |psi|^2 = 0.906
==== e(   3) =    17.60417 eV ==== 
     psi = 0.250*[#   2]+0.250*[#   3]+0.250*[#   4]
    |psi|^2 = 0.749
==== e(   4) =    19.04628 eV ==== 
     psi = 0.116*[#   2]+0.116*[#   3]+0.116*[#   4]+0.064*[#   1]
    |psi|^2 = 0.412
==== e(   5) =    20.21247 eV ==== 
     psi = 0.129*[#   2]+0.129*[#   3]+0.129*[#   4]+0.036*[#   1]
    |psi|^2 = 0.424
==== e(   6) =    23.41508 eV ==== 
     psi = 0.060*[#   2]+0.060*[#   3]+0.060*[#   4]
    |psi|^2 = 0.180
==== e(   7) =    23.52895 eV ==== 
     psi = 0.027*[#   2]+0.027*[#   3]+0.027*[#   4]+0.018*[#   1]
    |psi|^2 = 0.099
==== e(   8) =    26.06739 eV ==== 
     psi = 0.040*[#   2]+0.040*[#   3]+0.040*[#   4]
    |psi|^2 = 0.119
==== e(   9) =    27.16985 eV ==== 
     psi = 0.016*[#   1]+0.005*[#   2]+0.005*[#   3]+0.005*[#   4]
    |psi|^2 = 0.031
==== e(  10) =    29.32707 eV ==== 
     psi = 0.022*[#   2]+0.022*[#   3]+0.022*[#   4]
    |psi|^2 = 0.065

 k =   0.3093592168  0.2209708691 -0.2209708691
==== e(   1) =     0.27086 eV ==== 
     psi = 0.370*[#   1]+0.209*[#   2]+0.209*[#   3]+0.209*[#   4]
    |psi|^2 = 0.998
==== e(   2) =     7.86780 eV ==== 
     psi = 0.527*[#   1]+0.140*[#   2]+0.140*[#   3]+0.140*[#   4]
    |psi|^2 = 0.946
==== e(   3) =    17.58299 eV ==== 
     psi = 0.248*[#   2]+0.248*[#   3]+0.248*[#   4]
    |psi|^2 = 0.743
==== e(   4) =    19.02672 eV ==== 
     psi = 0.045*[#   2]+0.045*[#   3]+0.045*[#   4]+0.023*[#   1]
    |psi|^2 = 0.158
==== e(   5) =    19.22274 eV ==== 
     psi = 0.223*[#   2]+0.223*[#   3]+0.223*[#   4]+0.057*[#   1]
    |psi|^2 = 0.725
==== e(   6) =    22.45583 eV ==== 
     psi = 0.071*[#   2]+0.071*[#   3]+0.071*[#   4]
    |psi|^2 = 0.212
==== e(   7) =    23.59127 eV ==== 
     psi = 0.019*[#   2]+0.019*[#   3]+0.019*[#   4]+0.011*[#   1]
    |psi|^2 = 0.068
==== e(   8) =    25.70992 eV ==== 
     psi = 0.008*[#   2]+0.008*[#   3]+0.008*[#   4]+0.006*[#   1]
    |psi|^2 = 0.030
==== e(   9) =    28.33415 eV ==== 
     psi = 0.020*[#   2]+0.020*[#   3]+0.020*[#   4]+0.005*[#   1]
    |psi|^2 = 0.065
==== e(  10) =    30.99833 eV ==== 
     psi = 0.012*[#   2]+0.012*[#   3]+0.012*[#   4]
    |psi|^2 = 0.037

 k =   0.3535533906  0.2651650429 -0.2651650429
==== e(   1) =     1.54956 eV ==== 
     psi = 0.380*[#   1]+0.205*[#   2]+0.205*[#   3]+0.205*[#   4]
    |psi|^2 = 0.996
==== e(   2) =     5.90533 eV ==== 
     psi = 0.538*[#   1]+0.144*[#   2]+0.144*[#   3]+0.144*[#   4]
    |psi|^2 = 0.970
==== e(   3) =    17.74148 eV ==== 
     psi = 0.239*[#   2]+0.239*[#   3]+0.239*[#   4]
    |psi|^2 = 0.716
==== e(   4) =    18.36290 eV ==== 
     psi = 0.145*[#   2]+0.145*[#   3]+0.145*[#   4]+0.026*[#   1]
    |psi|^2 = 0.462
==== e(   5) =    19.22991 eV ==== 
     psi = 0.138*[#   2]+0.138*[#   3]+0.138*[#   4]+0.040*[#   1]
    |psi|^2 = 0.454
==== e(   6) =    21.65238 eV ==== 
     psi = 0.084*[#   2]+0.084*[#   3]+0.084*[#   4]
    |psi|^2 = 0.253
==== e(   7) =    23.81427 eV ==== 
     psi = 0.015*[#   2]+0.015*[#   3]+0.015*[#   4]+0.007*[#   1]
    |psi|^2 = 0.052
==== e(   8) =    24.89135 eV ==== 
     psi = 0.006*[#   1]+0.004*[#   2]+0.004*[#   3]+0.004*[#   4]
    |psi|^2 = 0.018
==== e(   9) =    30.16915 eV ==== 
     psi = 0.011*[#   2]+0.011*[#   3]+0.011*[#   4]+0.002*[#   1]
    |psi|^2 = 0.035
==== e(  10) =    32.46339 eV ==== 
     psi = 0.004*[#   2]+0.004*[#   3]+0.004*[#   4]
    |psi|^2 = 0.011

 k =  -0.3093592168 -0.3977475644  0.3977475644
==== e(   1) =     3.01401 eV ==== 
     psi = 0.348*[#   1]+0.215*[#   2]+0.215*[#   3]+0.215*[#   4]
    |psi|^2 = 0.993
==== e(   2) =     4.12932 eV ==== 
     psi = 0.581*[#   1]+0.134*[#   2]+0.134*[#   3]+0.134*[#   4]
    |psi|^2 = 0.983
==== e(   3) =    17.71264 eV ==== 
     psi = 0.180*[#   2]+0.180*[#   3]+0.180*[#   4]+0.030*[#   1]
    |psi|^2 = 0.570
==== e(   4) =    18.08052 eV ==== 
     psi = 0.225*[#   2]+0.225*[#   3]+0.225*[#   4]
    |psi|^2 = 0.674
==== e(   5) =    19.58639 eV ==== 
     psi = 0.112*[#   2]+0.112*[#   3]+0.112*[#   4]+0.029*[#   1]
    |psi|^2 = 0.367
==== e(   6) =    21.01952 eV ==== 
     psi = 0.099*[#   2]+0.099*[#   3]+0.099*[#   4]
    |psi|^2 = 0.298
==== e(   7) =    24.11604 eV ==== 
     psi = 0.014*[#   2]+0.014*[#   3]+0.014*[#   4]+0.011*[#   1]
    |psi|^2 = 0.052
==== e(   8) =    24.29326 eV ==== 
     psi = 0.002*[#   2]+0.002*[#   3]+0.002*[#   4]
    |psi|^2 = 0.005
==== e(   9) =    31.83983 eV ==== 
     psi = 0.003*[#   2]+0.003*[#   3]+0.003*[#   4]
    |psi|^2 = 0.010
==== e(  10) =    32.88298 eV ==== 

    |psi|^2 = 0.000

 k =  -0.2651650429 -0.3535533906  0.3535533906
==== e(   1) =     2.50799 eV ==== 
     psi = 0.382*[#   1]+0.204*[#   2]+0.204*[#   3]+0.204*[#   4]
    |psi|^2 = 0.994
==== e(   2) =     4.69755 eV ==== 
     psi = 0.545*[#   1]+0.145*[#   2]+0.145*[#   3]+0.145*[#   4]
    |psi|^2 = 0.980
==== e(   3) =    17.24449 eV ==== 
     psi = 0.203*[#   2]+0.203*[#   3]+0.203*[#   4]+0.035*[#   1]
    |psi|^2 = 0.643
==== e(   4) =    18.59998 eV ==== 
     psi = 0.208*[#   2]+0.208*[#   3]+0.208*[#   4]
    |psi|^2 = 0.625
==== e(   5) =    20.12634 eV ==== 
     psi = 0.092*[#   2]+0.092*[#   3]+0.092*[#   4]+0.025*[#   1]
    |psi|^2 = 0.301
==== e(   6) =    20.56258 eV ==== 
     psi = 0.113*[#   2]+0.113*[#   3]+0.113*[#   4]
    |psi|^2 = 0.338
==== e(   7) =    23.65155 eV ==== 
     psi = 0.009*[#   1]+0.006*[#   2]+0.006*[#   3]+0.006*[#   4]
    |psi|^2 = 0.026
==== e(   8) =    24.80200 eV ==== 
     psi = 0.009*[#   2]+0.009*[#   3]+0.009*[#   4]+0.003*[#   1]
    |psi|^2 = 0.029
==== e(   9) =    31.72222 eV ==== 
     psi = 0.007*[#   2]+0.007*[#   3]+0.007*[#   4]
    |psi|^2 = 0.020
==== e(  10) =    32.49480 eV ==== 

    |psi|^2 = 0.001

 k =  -0.2209708691 -0.3093592168  0.3093592168
==== e(   1) =     1.10171 eV ==== 
     psi = 0.376*[#   1]+0.207*[#   2]+0.207*[#   3]+0.207*[#   4]
    |psi|^2 = 0.997
==== e(   2) =     6.53940 eV ==== 
     psi = 0.538*[#   1]+0.142*[#   2]+0.142*[#   3]+0.142*[#   4]
    |psi|^2 = 0.964
==== e(   3) =    16.96081 eV ==== 
     psi = 0.217*[#   2]+0.217*[#   3]+0.217*[#   4]+0.044*[#   1]
    |psi|^2 = 0.694
==== e(   4) =    19.29690 eV ==== 
     psi = 0.199*[#   2]+0.199*[#   3]+0.199*[#   4]
    |psi|^2 = 0.597
==== e(   5) =    20.28532 eV ==== 
     psi = 0.114*[#   2]+0.114*[#   3]+0.114*[#   4]
    |psi|^2 = 0.342
==== e(   6) =    20.84463 eV ==== 
     psi = 0.074*[#   2]+0.074*[#   3]+0.074*[#   4]+0.023*[#   1]
    |psi|^2 = 0.246
==== e(   7) =    23.30308 eV ==== 
     psi = 0.014*[#   1]+0.007*[#   2]+0.007*[#   3]+0.007*[#   4]
    |psi|^2 = 0.034
==== e(   8) =    25.53250 eV ==== 
     psi = 0.009*[#   2]+0.009*[#   3]+0.009*[#   4]+0.004*[#   1]
    |psi|^2 = 0.032
==== e(   9) =    29.91183 eV ==== 
     psi = 0.017*[#   2]+0.017*[#   3]+0.017*[#   4]
    |psi|^2 = 0.052
==== e(  10) =    31.56097 eV ==== 
     psi = 0.005*[#   2]+0.005*[#   3]+0.005*[#   4]
    |psi|^2 = 0.017

 k =  -0.1767766953 -0.2651650429  0.2651650429
==== e(   1) =    -0.11156 eV ==== 
     psi = 0.372*[#   1]+0.209*[#   2]+0.209*[#   3]+0.209*[#   4]
    |psi|^2 = 0.998
==== e(   2) =     8.55903 eV ==== 
     psi = 0.517*[#   1]+0.139*[#   2]+0.139*[#   3]+0.139*[#   4]
    |psi|^2 = 0.935
==== e(   3) =    16.86218 eV ==== 
     psi = 0.222*[#   2]+0.222*[#   3]+0.222*[#   4]+0.058*[#   1]
    |psi|^2 = 0.725
==== e(   4) =    20.07963 eV ==== 
     psi = 0.300*[#   2]+0.300*[#   3]+0.300*[#   4]
    |psi|^2 = 0.899
==== e(   5) =    20.27550 eV ==== 

    |psi|^2 = 0.001
==== e(   6) =    21.73159 eV ==== 
     psi = 0.060*[#   2]+0.060*[#   3]+0.060*[#   4]+0.021*[#   1]
    |psi|^2 = 0.201
==== e(   7) =    23.12875 eV ==== 
     psi = 0.024*[#   1]+0.010*[#   2]+0.010*[#   3]+0.010*[#   4]
    |psi|^2 = 0.053
==== e(   8) =    26.38398 eV ==== 
     psi = 0.012*[#   2]+0.012*[#   3]+0.012*[#   4]+0.004*[#   1]
    |psi|^2 = 0.040
==== e(   9) =    28.03603 eV ==== 
     psi = 0.032*[#   2]+0.032*[#   3]+0.032*[#   4]
    |psi|^2 = 0.095
==== e(  10) =    29.99122 eV ==== 
     psi = 0.011*[#   2]+0.011*[#   3]+0.011*[#   4]+0.003*[#   1]
    |psi|^2 = 0.037

 k =  -0.1325825215 -0.2209708691  0.2209708691
==== e(   1) =    -1.12469 eV ==== 
     psi = 0.395*[#   1]+0.201*[#   2]+0.201*[#   3]+0.201*[#   4]
    |psi|^2 = 0.999
==== e(   2) =    10.74338 eV ==== 
     psi = 0.455*[#   1]+0.144*[#   2]+0.144*[#   3]+0.144*[#   4]
    |psi|^2 = 0.888
==== e(   3) =    16.94865 eV ==== 
     psi = 0.218*[#   2]+0.218*[#   3]+0.218*[#   4]+0.080*[#   1]
    |psi|^2 = 0.733
==== e(   4) =    20.22454 eV ==== 
     psi = 0.183*[#   2]+0.183*[#   3]+0.183*[#   4]
    |psi|^2 = 0.548
==== e(   5) =    21.24175 eV ==== 
     psi = 0.098*[#   2]+0.098*[#   3]+0.098*[#   4]
    |psi|^2 = 0.295
==== e(   6) =    22.74559 eV ==== 
     psi = 0.055*[#   2]+0.055*[#   3]+0.055*[#   4]+0.008*[#   1]
    |psi|^2 = 0.173
==== e(   7) =    23.14102 eV ==== 
     psi = 0.049*[#   1]+0.011*[#   2]+0.011*[#   3]+0.011*[#   4]
    |psi|^2 = 0.083
==== e(   8) =    26.27486 eV ==== 
     psi = 0.050*[#   2]+0.050*[#   3]+0.050*[#   4]
    |psi|^2 = 0.151
==== e(   9) =    27.10555 eV ==== 
     psi = 0.024*[#   2]+0.024*[#   3]+0.024*[#   4]+0.001*[#   1]
    |psi|^2 = 0.073
==== e(  10) =    28.60523 eV ==== 
     psi = 0.010*[#   1]+0.008*[#   2]+0.008*[#   3]+0.008*[#   4]
    |psi|^2 = 0.036

 k =  -0.0883883476 -0.1767766953  0.1767766953
==== e(   1) =    -1.93328 eV ==== 
     psi = 0.457*[#   1]+0.181*[#   2]+0.181*[#   3]+0.181*[#   4]
    |psi|^2 = 0.999
==== e(   2) =    13.07365 eV ==== 
     psi = 0.343*[#   1]+0.156*[#   2]+0.156*[#   3]+0.156*[#   4]
    |psi|^2 = 0.810
==== e(   3) =    17.22066 eV ==== 
     psi = 0.203*[#   2]+0.203*[#   3]+0.203*[#   4]+0.109*[#   1]
    |psi|^2 = 0.717
==== e(   4) =    20.45364 eV ==== 
     psi = 0.150*[#   2]+0.150*[#   3]+0.150*[#   4]
    |psi|^2 = 0.449
==== e(   5) =    22.39782 eV ==== 
     psi = 0.115*[#   2]+0.115*[#   3]+0.115*[#   4]
    |psi|^2 = 0.344
==== e(   6) =    23.16551 eV ==== 
     psi = 0.045*[#   2]+0.045*[#   3]+0.045*[#   4]+0.031*[#   1]
    |psi|^2 = 0.167
==== e(   7) =    23.97883 eV ==== 
     psi = 0.039*[#   1]+0.033*[#   2]+0.033*[#   3]+0.033*[#   4]
    |psi|^2 = 0.137
==== e(   8) =    24.73915 eV ==== 
     psi = 0.065*[#   2]+0.065*[#   3]+0.065*[#   4]
    |psi|^2 = 0.195
==== e(   9) =    26.38151 eV ==== 
     psi = 0.036*[#   2]+0.036*[#   3]+0.036*[#   4]+0.005*[#   1]
    |psi|^2 = 0.114
==== e(  10) =    28.85099 eV ==== 
     psi = 0.012*[#   1]+0.003*[#   2]+0.003*[#   3]+0.003*[#   4]
    |psi|^2 = 0.022

 k =  -0.0441941738 -0.1325825215  0.1325825215
==== e(   1) =    -2.53387 eV ==== 
     psi = 0.572*[#   1]+0.142*[#   2]+0.142*[#   3]+0.142*[#   4]
    |psi|^2 = 0.999
==== e(   2) =    15.50586 eV ==== 
     psi = 0.173*[#   1]+0.168*[#   2]+0.168*[#   3]+0.168*[#   4]
    |psi|^2 = 0.676
==== e(   3) =    17.68746 eV ==== 
     psi = 0.177*[#   2]+0.177*[#   3]+0.177*[#   4]+0.149*[#   1]
    |psi|^2 = 0.679
==== e(   4) =    20.79009 eV ==== 
     psi = 0.088*[#   2]+0.088*[#   3]+0.088*[#   4]
    |psi|^2 = 0.264
==== e(   5) =    22.91605 eV ==== 
     psi = 0.238*[#   2]+0.238*[#   3]+0.238*[#   4]
    |psi|^2 = 0.713
==== e(   6) =    23.29038 eV ==== 
     psi = 0.081*[#   2]+0.081*[#   3]+0.081*[#   4]+0.031*[#   1]
    |psi|^2 = 0.273
==== e(   7) =    24.23422 eV ==== 

    |psi|^2 = 0.000
==== e(   8) =    24.73802 eV ==== 
     psi = 0.070*[#   2]+0.070*[#   3]+0.070*[#   4]+0.060*[#   1]
    |psi|^2 = 0.271
==== e(   9) =    25.57503 eV ==== 
     psi = 0.002*[#   2]+0.002*[#   3]+0.002*[#   4]
    |psi|^2 = 0.005
==== e(  10) =    29.27499 eV ==== 
     psi = 0.015*[#   2]+0.015*[#   3]+0.015*[#   4]+0.006*[#   1]
    |psi|^2 = 0.051

 k =   0.0000000000 -0.0883883476  0.0883883476
==== e(   1) =    -2.92384 eV ==== 
     psi = 0.740*[#   1]+0.086*[#   2]+0.086*[#   3]+0.086*[#   4]
    |psi|^2 = 0.999
==== e(   2) =    17.77314 eV ==== 
     psi = 0.152*[#   2]+0.152*[#   3]+0.152*[#   4]
    |psi|^2 = 0.456
==== e(   3) =    18.52229 eV ==== 
     psi = 0.162*[#   1]+0.155*[#   2]+0.155*[#   3]+0.155*[#   4]
    |psi|^2 = 0.628
==== e(   4) =    20.91787 eV ==== 

    |psi|^2 = 0.000
==== e(   5) =    22.32070 eV ==== 
     psi = 0.311*[#   2]+0.311*[#   3]+0.311*[#   4]
    |psi|^2 = 0.932
==== e(   6) =    23.17590 eV ==== 
     psi = 0.147*[#   2]+0.147*[#   3]+0.147*[#   4]
    |psi|^2 = 0.442
==== e(   7) =    23.81583 eV ==== 
     psi = 0.081*[#   1]+0.078*[#   2]+0.078*[#   3]+0.078*[#   4]
    |psi|^2 = 0.315
==== e(   8) =    25.50325 eV ==== 
     psi = 0.009*[#   2]+0.009*[#   3]+0.009*[#   4]
    |psi|^2 = 0.028
==== e(   9) =    26.54701 eV ==== 
     psi = 0.005*[#   1]+0.004*[#   2]+0.004*[#   3]+0.004*[#   4]
    |psi|^2 = 0.018
==== e(  10) =    27.02962 eV ==== 
     psi = 0.016*[#   2]+0.016*[#   3]+0.016*[#   4]
    |psi|^2 = 0.047

 k =   0.1767766953  0.0000000000  0.0000000000
==== e(   1) =    -2.64010 eV ==== 
     psi = 0.598*[#   1]+0.134*[#   2]+0.134*[#   3]+0.134*[#   4]
    |psi|^2 = 0.999
==== e(   2) =    17.93141 eV ==== 
     psi = 0.234*[#   2]+0.234*[#   3]+0.234*[#   4]
    |psi|^2 = 0.702
==== e(   3) =    17.93141 eV ==== 
     psi = 0.234*[#   2]+0.234*[#   3]+0.234*[#   4]
    |psi|^2 = 0.702
==== e(   4) =    18.16329 eV ==== 

    |psi|^2 = 0.000
==== e(   5) =    20.99551 eV ==== 
     psi = 0.360*[#   1]+0.180*[#   2]+0.180*[#   3]+0.180*[#   4]
    |psi|^2 = 0.902
==== e(   6) =    22.66699 eV ==== 
     psi = 0.034*[#   1]+0.016*[#   2]+0.016*[#   3]+0.016*[#   4]
    |psi|^2 = 0.083
==== e(   7) =    25.66237 eV ==== 
     psi = 0.086*[#   2]+0.086*[#   3]+0.086*[#   4]
    |psi|^2 = 0.258
==== e(   8) =    25.66237 eV ==== 
     psi = 0.086*[#   2]+0.086*[#   3]+0.086*[#   4]
    |psi|^2 = 0.258
==== e(   9) =    27.99281 eV ==== 

    |psi|^2 = 0.000
==== e(  10) =    28.11173 eV ==== 

    |psi|^2 = 0.000

 k =   0.2209708691  0.0441941738 -0.0441941738
==== e(   1) =    -2.25091 eV ==== 
     psi = 0.493*[#   1]+0.169*[#   2]+0.169*[#   3]+0.169*[#   4]
    |psi|^2 = 0.999
==== e(   2) =    15.70022 eV ==== 
     psi = 0.184*[#   2]+0.184*[#   3]+0.184*[#   4]+0.082*[#   1]
    |psi|^2 = 0.635
==== e(   3) =    17.30746 eV ==== 
     psi = 0.257*[#   2]+0.257*[#   3]+0.257*[#   4]
    |psi|^2 = 0.771
==== e(   4) =    18.46529 eV ==== 
     psi = 0.083*[#   1]+0.044*[#   2]+0.044*[#   3]+0.044*[#   4]
    |psi|^2 = 0.215
==== e(   5) =    20.94977 eV ==== 
     psi = 0.302*[#   1]+0.171*[#   2]+0.171*[#   3]+0.171*[#   4]
    |psi|^2 = 0.813
==== e(   6) =    21.24693 eV ==== 
     psi = 0.030*[#   2]+0.030*[#   3]+0.030*[#   4]+0.028*[#   1]
    |psi|^2 = 0.117
==== e(   7) =    26.12078 eV ==== 
     psi = 0.053*[#   2]+0.053*[#   3]+0.053*[#   4]+0.006*[#   1]
    |psi|^2 = 0.163
==== e(   8) =    26.63096 eV ==== 
     psi = 0.067*[#   2]+0.067*[#   3]+0.067*[#   4]
    |psi|^2 = 0.200
==== e(   9) =    27.88804 eV ==== 
     psi = 0.002*[#   2]+0.002*[#   3]+0.002*[#   4]
    |psi|^2 = 0.006
==== e(  10) =    30.05426 eV ==== 
     psi = 0.008*[#   2]+0.008*[#   3]+0.008*[#   4]+0.001*[#   1]
    |psi|^2 = 0.025

 k =   0.2651650429  0.0883883476 -0.0883883476
==== e(   1) =    -1.65152 eV ==== 
     psi = 0.412*[#   1]+0.196*[#   2]+0.196*[#   3]+0.196*[#   4]
    |psi|^2 = 0.999
==== e(   2) =    13.29970 eV ==== 
     psi = 0.214*[#   1]+0.194*[#   2]+0.194*[#   3]+0.194*[#   4]
    |psi|^2 = 0.796
==== e(   3) =    16.86248 eV ==== 
     psi = 0.272*[#   2]+0.272*[#   3]+0.272*[#   4]
    |psi|^2 = 0.815
==== e(   4) =    18.37951 eV ==== 
     psi = 0.136*[#   1]+0.035*[#   2]+0.035*[#   3]+0.035*[#   4]
    |psi|^2 = 0.241
==== e(   5) =    19.63343 eV ==== 
     psi = 0.146*[#   1]+0.090*[#   2]+0.090*[#   3]+0.090*[#   4]
    |psi|^2 = 0.417
==== e(   6) =    22.18279 eV ==== 
     psi = 0.111*[#   2]+0.111*[#   3]+0.111*[#   4]+0.075*[#   1]
    |psi|^2 = 0.409
==== e(   7) =    26.10016 eV ==== 
     psi = 0.029*[#   2]+0.029*[#   3]+0.029*[#   4]+0.009*[#   1]
    |psi|^2 = 0.096
==== e(   8) =    26.25421 eV ==== 
     psi = 0.037*[#   2]+0.037*[#   3]+0.037*[#   4]
    |psi|^2 = 0.112
==== e(   9) =    28.69100 eV ==== 
     psi = 0.021*[#   2]+0.021*[#   3]+0.021*[#   4]
    |psi|^2 = 0.062
==== e(  10) =    29.87904 eV ==== 
     psi = 0.005*[#   1]+0.004*[#   2]+0.004*[#   3]+0.004*[#   4]
    |psi|^2 = 0.019

 k =   0.3093592168  0.1325825215 -0.1325825215
==== e(   1) =    -0.84456 eV ==== 
     psi = 0.366*[#   1]+0.211*[#   2]+0.211*[#   3]+0.211*[#   4]
    |psi|^2 = 0.999
==== e(   2) =    10.98795 eV ==== 
     psi = 0.326*[#   1]+0.188*[#   2]+0.188*[#   3]+0.188*[#   4]
    |psi|^2 = 0.889
==== e(   3) =    16.59764 eV ==== 
     psi = 0.279*[#   2]+0.279*[#   3]+0.279*[#   4]
    |psi|^2 = 0.838
==== e(   4) =    18.14749 eV ==== 
     psi = 0.016*[#   1]+0.003*[#   2]+0.003*[#   3]+0.003*[#   4]
    |psi|^2 = 0.025
==== e(   5) =    18.44734 eV ==== 
     psi = 0.252*[#   1]+0.166*[#   2]+0.166*[#   3]+0.166*[#   4]
    |psi|^2 = 0.751
==== e(   6) =    23.64113 eV ==== 
     psi = 0.079*[#   2]+0.079*[#   3]+0.079*[#   4]+0.025*[#   1]
    |psi|^2 = 0.262
==== e(   7) =    25.25317 eV ==== 
     psi = 0.036*[#   2]+0.036*[#   3]+0.036*[#   4]
    |psi|^2 = 0.107
==== e(   8) =    26.08931 eV ==== 
     psi = 0.014*[#   2]+0.014*[#   3]+0.014*[#   4]+0.009*[#   1]
    |psi|^2 = 0.050
==== e(   9) =    28.79883 eV ==== 
     psi = 0.006*[#   1]+0.002*[#   2]+0.002*[#   3]+0.002*[#   4]
    |psi|^2 = 0.012
==== e(  10) =    30.16366 eV ==== 
     psi = 0.016*[#   2]+0.016*[#   3]+0.016*[#   4]
    |psi|^2 = 0.049

 k =   0.3535533906  0.1767766953 -0.1767766953
==== e(   1) =     0.16644 eV ==== 
     psi = 0.348*[#   1]+0.217*[#   2]+0.217*[#   3]+0.217*[#   4]
    |psi|^2 = 0.998
==== e(   2) =     8.81467 eV ==== 
     psi = 0.402*[#   1]+0.179*[#   2]+0.179*[#   3]+0.179*[#   4]
    |psi|^2 = 0.940
==== e(   3) =    16.51322 eV ==== 
     psi = 0.281*[#   2]+0.281*[#   3]+0.281*[#   4]
    |psi|^2 = 0.844
==== e(   4) =    17.23243 eV ==== 
     psi = 0.109*[#   2]+0.109*[#   3]+0.109*[#   4]+0.082*[#   1]
    |psi|^2 = 0.411
==== e(   5) =    18.23277 eV ==== 
     psi = 0.148*[#   1]+0.100*[#   2]+0.100*[#   3]+0.100*[#   4]
    |psi|^2 = 0.448
==== e(   6) =    24.28210 eV ==== 
     psi = 0.041*[#   2]+0.041*[#   3]+0.041*[#   4]
    |psi|^2 = 0.122
==== e(   7) =    25.09401 eV ==== 
     psi = 0.057*[#   2]+0.057*[#   3]+0.057*[#   4]+0.003*[#   1]
    |psi|^2 = 0.175
==== e(   8) =    26.34163 eV ==== 
     psi = 0.008*[#   1]+0.001*[#   2]+0.001*[#   3]+0.001*[#   4]
    |psi|^2 = 0.012
==== e(   9) =    27.86977 eV ==== 
     psi = 0.007*[#   1]
    |psi|^2 = 0.008
==== e(  10) =    31.71709 eV ==== 
     psi = 0.009*[#   2]+0.009*[#   3]+0.009*[#   4]
    |psi|^2 = 0.027

 k =   0.3977475644  0.2209708691 -0.2209708691
==== e(   1) =     1.37695 eV ==== 
     psi = 0.349*[#   1]+0.216*[#   2]+0.216*[#   3]+0.216*[#   4]
    |psi|^2 = 0.997
==== e(   2) =     6.80240 eV ==== 
     psi = 0.445*[#   1]+0.174*[#   2]+0.174*[#   3]+0.174*[#   4]
    |psi|^2 = 0.967
==== e(   3) =    16.32850 eV ==== 
     psi = 0.154*[#   2]+0.154*[#   3]+0.154*[#   4]+0.098*[#   1]
    |psi|^2 = 0.559
==== e(   4) =    16.60982 eV ==== 
     psi = 0.278*[#   2]+0.278*[#   3]+0.278*[#   4]
    |psi|^2 = 0.834
==== e(   5) =    18.35599 eV ==== 
     psi = 0.097*[#   1]+0.084*[#   2]+0.084*[#   3]+0.084*[#   4]
    |psi|^2 = 0.348
==== e(   6) =    23.44138 eV ==== 
     psi = 0.048*[#   2]+0.048*[#   3]+0.048*[#   4]
    |psi|^2 = 0.144
==== e(   7) =    25.70811 eV ==== 
     psi = 0.031*[#   2]+0.031*[#   3]+0.031*[#   4]
    |psi|^2 = 0.094
==== e(   8) =    26.77448 eV ==== 

    |psi|^2 = 0.000
==== e(   9) =    28.01379 eV ==== 
     psi = 0.009*[#   1]+0.006*[#   2]+0.006*[#   3]+0.006*[#   4]
    |psi|^2 = 0.026
==== e(  10) =    32.96368 eV ==== 
     psi = 0.002*[#   2]+0.002*[#   3]+0.002*[#   4]
    |psi|^2 = 0.007

 k =  -0.2651650429 -0.4419417382  0.4419417382
==== e(   1) =     2.77934 eV ==== 
     psi = 0.346*[#   1]+0.216*[#   2]+0.216*[#   3]+0.216*[#   4]
    |psi|^2 = 0.994
==== e(   2) =     4.96620 eV ==== 
     psi = 0.473*[#   1]+0.170*[#   2]+0.170*[#   3]+0.170*[#   4]
    |psi|^2 = 0.982
==== e(   3) =    15.60343 eV ==== 
     psi = 0.184*[#   2]+0.184*[#   3]+0.184*[#   4]+0.103*[#   1]
    |psi|^2 = 0.656
==== e(   4) =    16.88773 eV ==== 
     psi = 0.269*[#   2]+0.269*[#   3]+0.269*[#   4]
    |psi|^2 = 0.808
==== e(   5) =    18.66913 eV ==== 
     psi = 0.071*[#   1]+0.070*[#   2]+0.070*[#   3]+0.070*[#   4]
    |psi|^2 = 0.280
==== e(   6) =    22.75952 eV ==== 
     psi = 0.057*[#   2]+0.057*[#   3]+0.057*[#   4]
    |psi|^2 = 0.171
==== e(   7) =    25.56469 eV ==== 
     psi = 0.015*[#   2]+0.015*[#   3]+0.015*[#   4]+0.002*[#   1]
    |psi|^2 = 0.046
==== e(   8) =    26.72715 eV ==== 
     psi = 0.005*[#   2]+0.005*[#   3]+0.005*[#   4]
    |psi|^2 = 0.014
==== e(   9) =    29.72320 eV ==== 
     psi = 0.005*[#   2]+0.005*[#   3]+0.005*[#   4]+0.003*[#   1]
    |psi|^2 = 0.017
==== e(  10) =    32.98005 eV ==== 

    |psi|^2 = 0.001

 k =  -0.2209708691 -0.3977475644  0.3977475644
==== e(   1) =     3.28434 eV ==== 
     psi = 0.308*[#   1]+0.229*[#   2]+0.229*[#   3]+0.229*[#   4]
    |psi|^2 = 0.994
==== e(   2) =     4.39825 eV ==== 
     psi = 0.516*[#   1]+0.156*[#   2]+0.156*[#   3]+0.156*[#   4]
    |psi|^2 = 0.984
==== e(   3) =    15.06581 eV ==== 
     psi = 0.205*[#   2]+0.205*[#   3]+0.205*[#   4]+0.112*[#   1]
    |psi|^2 = 0.727
==== e(   4) =    17.34719 eV ==== 
     psi = 0.256*[#   2]+0.256*[#   3]+0.256*[#   4]
    |psi|^2 = 0.769
==== e(   5) =    19.17062 eV ==== 
     psi = 0.058*[#   1]+0.055*[#   2]+0.055*[#   3]+0.055*[#   4]
    |psi|^2 = 0.223
==== e(   6) =    22.24778 eV ==== 
     psi = 0.066*[#   2]+0.066*[#   3]+0.066*[#   4]
    |psi|^2 = 0.199
==== e(   7) =    25.12477 eV ==== 
     psi = 0.009*[#   2]+0.009*[#   3]+0.009*[#   4]+0.003*[#   1]
    |psi|^2 = 0.030
==== e(   8) =    27.10860 eV ==== 
     psi = 0.007*[#   2]+0.007*[#   3]+0.007*[#   4]
    |psi|^2 = 0.021
==== e(   9) =    31.26792 eV ==== 

    |psi|^2 = 0.003
==== e(  10) =    31.53898 eV ==== 
     psi = 0.006*[#   2]+0.006*[#   3]+0.006*[#   4]
    |psi|^2 = 0.019

 k =  -0.1767766953 -0.3535533906  0.3535533906
==== e(   1) =     1.82419 eV ==== 
     psi = 0.352*[#   1]+0.215*[#   2]+0.215*[#   3]+0.215*[#   4]
    |psi|^2 = 0.996
==== e(   2) =     6.16601 eV ==== 
     psi = 0.455*[#   1]+0.173*[#   2]+0.173*[#   3]+0.173*[#   4]
    |psi|^2 = 0.973
==== e(   3) =    14.71969 eV ==== 
     psi = 0.215*[#   2]+0.215*[#   3]+0.215*[#   4]+0.132*[#   1]
    |psi|^2 = 0.778
==== e(   4) =    17.98774 eV ==== 
     psi = 0.240*[#   2]+0.240*[#   3]+0.240*[#   4]
    |psi|^2 = 0.720
==== e(   5) =    19.85735 eV ==== 
     psi = 0.053*[#   1]+0.041*[#   2]+0.041*[#   3]+0.041*[#   4]
    |psi|^2 = 0.177
==== e(   6) =    21.91046 eV ==== 
     psi = 0.075*[#   2]+0.075*[#   3]+0.075*[#   4]
    |psi|^2 = 0.224
==== e(   7) =    24.74425 eV ==== 
     psi = 0.009*[#   2]+0.009*[#   3]+0.009*[#   4]+0.005*[#   1]
    |psi|^2 = 0.032
==== e(   8) =    27.68760 eV ==== 
     psi = 0.008*[#   2]+0.008*[#   3]+0.008*[#   4]
    |psi|^2 = 0.025
==== e(   9) =    29.60166 eV ==== 
     psi = 0.017*[#   2]+0.017*[#   3]+0.017*[#   4]
    |psi|^2 = 0.050
==== e(  10) =    31.58294 eV ==== 

    |psi|^2 = 0.002

 k =  -0.1325825215 -0.3093592168  0.3093592168
==== e(   1) =     0.54824 eV ==== 
     psi = 0.349*[#   1]+0.216*[#   2]+0.216*[#   3]+0.216*[#   4]
    |psi|^2 = 0.998
==== e(   2) =     8.11594 eV ==== 
     psi = 0.419*[#   1]+0.178*[#   2]+0.178*[#   3]+0.178*[#   4]
    |psi|^2 = 0.951
==== e(   3) =    14.56880 eV ==== 
     psi = 0.214*[#   2]+0.214*[#   3]+0.214*[#   4]+0.168*[#   1]
    |psi|^2 = 0.811
==== e(   4) =    18.80674 eV ==== 
     psi = 0.222*[#   2]+0.222*[#   3]+0.222*[#   4]
    |psi|^2 = 0.666
==== e(   5) =    20.72184 eV ==== 
     psi = 0.052*[#   1]+0.030*[#   2]+0.030*[#   3]+0.030*[#   4]
    |psi|^2 = 0.140
==== e(   6) =    21.74706 eV ==== 
     psi = 0.078*[#   2]+0.078*[#   3]+0.078*[#   4]
    |psi|^2 = 0.234
==== e(   7) =    24.49304 eV ==== 
     psi = 0.013*[#   2]+0.013*[#   3]+0.013*[#   4]+0.008*[#   1]
    |psi|^2 = 0.046
==== e(   8) =    27.64016 eV ==== 
     psi = 0.032*[#   2]+0.032*[#   3]+0.032*[#   4]
    |psi|^2 = 0.095
==== e(   9) =    28.26322 eV ==== 
     psi = 0.012*[#   2]+0.012*[#   3]+0.012*[#   4]
    |psi|^2 = 0.035
==== e(  10) =    30.65715 eV ==== 
     psi = 0.003*[#   1]+0.001*[#   2]+0.001*[#   3]+0.001*[#   4]
    |psi|^2 = 0.007

 k =  -0.0883883476 -0.2651650429  0.2651650429
==== e(   1) =    -0.52996 eV ==== 
     psi = 0.361*[#   1]+0.213*[#   2]+0.213*[#   3]+0.213*[#   4]
    |psi|^2 = 0.999
==== e(   2) =    10.22195 eV ==== 
     psi = 0.340*[#   1]+0.192*[#   2]+0.192*[#   3]+0.192*[#   4]
    |psi|^2 = 0.915
==== e(   3) =    14.62159 eV ==== 
     psi = 0.227*[#   1]+0.200*[#   2]+0.200*[#   3]+0.200*[#   4]
    |psi|^2 = 0.827
==== e(   4) =    19.79639 eV ==== 
     psi = 0.208*[#   2]+0.208*[#   3]+0.208*[#   4]
    |psi|^2 = 0.623
==== e(   5) =    21.75144 eV ==== 
     psi = 0.068*[#   2]+0.068*[#   3]+0.068*[#   4]
    |psi|^2 = 0.205
==== e(   6) =    21.75159 eV ==== 
     psi = 0.050*[#   1]+0.020*[#   2]+0.020*[#   3]+0.020*[#   4]
    |psi|^2 = 0.112
==== e(   7) =    24.35901 eV ==== 
     psi = 0.021*[#   2]+0.021*[#   3]+0.021*[#   4]+0.011*[#   1]
    |psi|^2 = 0.075
==== e(   8) =    25.81007 eV ==== 
     psi = 0.056*[#   2]+0.056*[#   3]+0.056*[#   4]
    |psi|^2 = 0.168
==== e(   9) =    28.04039 eV ==== 
     psi = 0.016*[#   2]+0.016*[#   3]+0.016*[#   4]+0.005*[#   1]
    |psi|^2 = 0.053
==== e(  10) =    30.22339 eV ==== 
     psi = 0.004*[#   1]
    |psi|^2 = 0.006

 k =  -0.0441941738 -0.2209708691  0.2209708691
==== e(   1) =    -1.40543 eV ==== 
     psi = 0.399*[#   1]+0.200*[#   2]+0.200*[#   3]+0.200*[#   4]
    |psi|^2 = 0.999
==== e(   2) =    12.43380 eV ==== 
     psi = 0.219*[#   2]+0.219*[#   3]+0.219*[#   4]+0.191*[#   1]
    |psi|^2 = 0.847
==== e(   3) =    14.91171 eV ==== 
     psi = 0.327*[#   1]+0.168*[#   2]+0.168*[#   3]+0.168*[#   4]
    |psi|^2 = 0.830
==== e(   4) =    20.92802 eV ==== 
     psi = 0.209*[#   2]+0.209*[#   3]+0.209*[#   4]
    |psi|^2 = 0.627
==== e(   5) =    21.88247 eV ==== 
     psi = 0.028*[#   2]+0.028*[#   3]+0.028*[#   4]
    |psi|^2 = 0.083
==== e(   6) =    22.92153 eV ==== 
     psi = 0.049*[#   1]+0.014*[#   2]+0.014*[#   3]+0.014*[#   4]
    |psi|^2 = 0.091
==== e(   7) =    24.22367 eV ==== 
     psi = 0.094*[#   2]+0.094*[#   3]+0.094*[#   4]
    |psi|^2 = 0.283
==== e(   8) =    24.26590 eV ==== 
     psi = 0.040*[#   2]+0.040*[#   3]+0.040*[#   4]+0.010*[#   1]
    |psi|^2 = 0.129
==== e(   9) =    26.82992 eV ==== 
     psi = 0.020*[#   1]+0.014*[#   2]+0.014*[#   3]+0.014*[#   4]
    |psi|^2 = 0.063
==== e(  10) =    30.83425 eV ==== 
     psi = 0.004*[#   1]+0.003*[#   2]+0.003*[#   3]+0.003*[#   4]
    |psi|^2 = 0.013

 k =   0.0000000000 -0.1767766953  0.1767766953
==== e(   1) =    -2.07437 eV ==== 
     psi = 0.471*[#   1]+0.176*[#   2]+0.176*[#   3]+0.176*[#   4]
    |psi|^2 = 0.999
==== e(   2) =    14.44684 eV ==== 
     psi = 0.242*[#   2]+0.242*[#   3]+0.242*[#   4]
    |psi|^2 = 0.726
==== e(   3) =    15.71147 eV ==== 
     psi = 0.435*[#   1]+0.131*[#   2]+0.131*[#   3]+0.131*[#   4]
    |psi|^2 = 0.828
==== e(   4) =    21.74528 eV ==== 

    |psi|^2 = 0.000
==== e(   5) =    22.08972 eV ==== 
     psi = 0.257*[#   2]+0.257*[#   3]+0.257*[#   4]
    |psi|^2 = 0.770
==== e(   6) =    23.39838 eV ==== 
     psi = 0.072*[#   2]+0.072*[#   3]+0.072*[#   4]
    |psi|^2 = 0.217
==== e(   7) =    23.98988 eV ==== 
     psi = 0.072*[#   2]+0.072*[#   3]+0.072*[#   4]
    |psi|^2 = 0.216
==== e(   8) =    24.16079 eV ==== 
     psi = 0.051*[#   1]+0.013*[#   2]+0.013*[#   3]+0.013*[#   4]
    |psi|^2 = 0.091
==== e(   9) =    25.73261 eV ==== 
     psi = 0.038*[#   1]+0.012*[#   2]+0.012*[#   3]+0.012*[#   4]
    |psi|^2 = 0.073
==== e(  10) =    31.10523 eV ==== 
     psi = 0.004*[#   1]
    |psi|^2 = 0.005

 k =   0.2651650429  0.0000000000  0.0000000000
==== e(   1) =    -1.93326 eV ==== 
     psi = 0.435*[#   1]+0.188*[#   2]+0.188*[#   3]+0.188*[#   4]
    |psi|^2 = 0.999
==== e(   2) =    16.61525 eV ==== 
     psi = 0.277*[#   2]+0.277*[#   3]+0.277*[#   4]
    |psi|^2 = 0.830
==== e(   3) =    16.61525 eV ==== 
     psi = 0.277*[#   2]+0.277*[#   3]+0.277*[#   4]
    |psi|^2 = 0.830
==== e(   4) =    16.70567 eV ==== 

    |psi|^2 = 0.000
==== e(   5) =    19.40814 eV ==== 
     psi = 0.133*[#   1]+0.034*[#   2]+0.034*[#   3]+0.034*[#   4]
    |psi|^2 = 0.233
==== e(   6) =    20.01144 eV ==== 
     psi = 0.429*[#   1]+0.111*[#   2]+0.111*[#   3]+0.111*[#   4]
    |psi|^2 = 0.761
==== e(   7) =    27.88096 eV ==== 
     psi = 0.051*[#   2]+0.051*[#   3]+0.051*[#   4]
    |psi|^2 = 0.152
==== e(   8) =    27.88096 eV ==== 
     psi = 0.051*[#   2]+0.051*[#   3]+0.051*[#   4]
    |psi|^2 = 0.152
==== e(   9) =    28.63930 eV ==== 

    |psi|^2 = 0.000
==== e(  10) =    30.98725 eV ==== 

    |psi|^2 = 0.000

 k =   0.3093592168  0.0441941738 -0.0441941738
==== e(   1) =    -1.40547 eV ==== 
     psi = 0.381*[#   1]+0.206*[#   2]+0.206*[#   3]+0.206*[#   4]
    |psi|^2 = 0.999
==== e(   2) =    14.41959 eV ==== 
     psi = 0.206*[#   2]+0.206*[#   3]+0.206*[#   4]+0.060*[#   1]
    |psi|^2 = 0.680
==== e(   3) =    16.10485 eV ==== 
     psi = 0.290*[#   2]+0.290*[#   3]+0.290*[#   4]
    |psi|^2 = 0.870
==== e(   4) =    17.20155 eV ==== 
     psi = 0.050*[#   2]+0.050*[#   3]+0.050*[#   4]+0.047*[#   1]
    |psi|^2 = 0.198
==== e(   5) =    17.90487 eV ==== 
     psi = 0.226*[#   1]+0.052*[#   2]+0.052*[#   3]+0.052*[#   4]
    |psi|^2 = 0.383
==== e(   6) =    20.12408 eV ==== 
     psi = 0.282*[#   1]+0.112*[#   2]+0.112*[#   3]+0.112*[#   4]
    |psi|^2 = 0.617
==== e(   7) =    28.03536 eV ==== 
     psi = 0.023*[#   2]+0.023*[#   3]+0.023*[#   4]
    |psi|^2 = 0.068
==== e(   8) =    28.45351 eV ==== 
     psi = 0.033*[#   2]+0.033*[#   3]+0.033*[#   4]+0.001*[#   1]
    |psi|^2 = 0.101
==== e(   9) =    29.52827 eV ==== 
     psi = 0.017*[#   2]+0.017*[#   3]+0.017*[#   4]
    |psi|^2 = 0.052
==== e(  10) =    32.12765 eV ==== 
     psi = 0.003*[#   2]+0.003*[#   3]+0.003*[#   4]+0.001*[#   1]
    |psi|^2 = 0.010

 k =   0.3535533906  0.0883883476 -0.0883883476
==== e(   1) =    -0.66988 eV ==== 
     psi = 0.345*[#   1]+0.218*[#   2]+0.218*[#   3]+0.218*[#   4]
    |psi|^2 = 0.999
==== e(   2) =    12.13146 eV ==== 
     psi = 0.226*[#   2]+0.226*[#   3]+0.226*[#   4]+0.160*[#   1]
    |psi|^2 = 0.838
==== e(   3) =    15.77624 eV ==== 
     psi = 0.298*[#   2]+0.298*[#   3]+0.298*[#   4]
    |psi|^2 = 0.894
==== e(   4) =    16.49685 eV ==== 
     psi = 0.144*[#   1]+0.068*[#   2]+0.068*[#   3]+0.068*[#   4]
    |psi|^2 = 0.347
==== e(   5) =    17.32828 eV ==== 
     psi = 0.240*[#   1]+0.043*[#   2]+0.043*[#   3]+0.043*[#   4]
    |psi|^2 = 0.370
==== e(   6) =    21.24129 eV ==== 
     psi = 0.106*[#   1]+0.087*[#   2]+0.087*[#   3]+0.087*[#   4]
    |psi|^2 = 0.368
==== e(   7) =    27.19222 eV ==== 
     psi = 0.021*[#   2]+0.021*[#   3]+0.021*[#   4]
    |psi|^2 = 0.062
==== e(   8) =    28.54980 eV ==== 
     psi = 0.020*[#   2]+0.020*[#   3]+0.020*[#   4]+0.002*[#   1]
    |psi|^2 = 0.062
==== e(   9) =    30.98947 eV ==== 
     psi = 0.013*[#   2]+0.013*[#   3]+0.013*[#   4]
    |psi|^2 = 0.039
==== e(  10) =    31.11671 eV ==== 
     psi = 0.002*[#   1]
    |psi|^2 = 0.005

 k =   0.3977475644  0.1325825215 -0.1325825215
==== e(   1) =     0.27019 eV ==== 
     psi = 0.327*[#   1]+0.224*[#   2]+0.224*[#   3]+0.224*[#   4]
    |psi|^2 = 0.999
==== e(   2) =     9.93725 eV ==== 
     psi = 0.252*[#   1]+0.223*[#   2]+0.223*[#   3]+0.223*[#   4]
    |psi|^2 = 0.920
==== e(   3) =    15.33850 eV ==== 
     psi = 0.194*[#   1]+0.109*[#   2]+0.109*[#   3]+0.109*[#   4]
    |psi|^2 = 0.523
==== e(   4) =    15.62924 eV ==== 
     psi = 0.302*[#   2]+0.302*[#   3]+0.302*[#   4]
    |psi|^2 = 0.905
==== e(   5) =    17.29636 eV ==== 
     psi = 0.184*[#   1]+0.044*[#   2]+0.044*[#   3]+0.044*[#   4]
    |psi|^2 = 0.316
==== e(   6) =    22.83862 eV ==== 
     psi = 0.053*[#   2]+0.053*[#   3]+0.053*[#   4]+0.037*[#   1]
    |psi|^2 = 0.197
==== e(   7) =    26.25028 eV ==== 
     psi = 0.023*[#   2]+0.023*[#   3]+0.023*[#   4]
    |psi|^2 = 0.069
==== e(   8) =    28.53377 eV ==== 
     psi = 0.011*[#   2]+0.011*[#   3]+0.011*[#   4]+0.003*[#   1]
    |psi|^2 = 0.037
==== e(   9) =    30.17878 eV ==== 
     psi = 0.002*[#   1]
    |psi|^2 = 0.002
==== e(  10) =    32.45283 eV ==== 
     psi = 0.007*[#   2]+0.007*[#   3]+0.007*[#   4]
    |psi|^2 = 0.020

 k =   0.4419417382  0.1767766953 -0.1767766953
==== e(   1) =     1.41036 eV ==== 
     psi = 0.323*[#   1]+0.225*[#   2]+0.225*[#   3]+0.225*[#   4]
    |psi|^2 = 0.997
==== e(   2) =     7.88581 eV ==== 
     psi = 0.322*[#   1]+0.213*[#   2]+0.213*[#   3]+0.213*[#   4]
    |psi|^2 = 0.960
==== e(   3) =    14.35282 eV ==== 
     psi = 0.203*[#   1]+0.146*[#   2]+0.146*[#   3]+0.146*[#   4]
    |psi|^2 = 0.641
==== e(   4) =    15.66388 eV ==== 
     psi = 0.301*[#   2]+0.301*[#   3]+0.301*[#   4]
    |psi|^2 = 0.904
==== e(   5) =    17.39076 eV ==== 
     psi = 0.134*[#   1]+0.045*[#   2]+0.045*[#   3]+0.045*[#   4]
    |psi|^2 = 0.268
==== e(   6) =    24.62279 eV ==== 
     psi = 0.031*[#   2]+0.031*[#   3]+0.031*[#   4]+0.012*[#   1]
    |psi|^2 = 0.107
==== e(   7) =    25.39060 eV ==== 
     psi = 0.027*[#   2]+0.027*[#   3]+0.027*[#   4]
    |psi|^2 = 0.081
==== e(   8) =    28.38656 eV ==== 
     psi = 0.005*[#   2]+0.005*[#   3]+0.005*[#   4]+0.004*[#   1]
    |psi|^2 = 0.017
==== e(   9) =    29.61915 eV ==== 
     psi = 0.001*[#   2]+0.001*[#   3]+0.001*[#   4]
    |psi|^2 = 0.004
==== e(  10) =    33.48049 eV ==== 
     psi = 0.001*[#   2]+0.001*[#   3]+0.001*[#   4]
    |psi|^2 = 0.004

 k =  -0.2209708691 -0.4861359121  0.4861359121
==== e(   1) =     2.74411 eV ==== 
     psi = 0.318*[#   1]+0.226*[#   2]+0.226*[#   3]+0.226*[#   4]
    |psi|^2 = 0.995
==== e(   2) =     5.99994 eV ==== 
     psi = 0.371*[#   1]+0.203*[#   2]+0.203*[#   3]+0.203*[#   4]
    |psi|^2 = 0.979
==== e(   3) =    13.55399 eV ==== 
     psi = 0.202*[#   1]+0.175*[#   2]+0.175*[#   3]+0.175*[#   4]
    |psi|^2 = 0.728
==== e(   4) =    15.88020 eV ==== 
     psi = 0.297*[#   2]+0.297*[#   3]+0.297*[#   4]
    |psi|^2 = 0.890
==== e(   5) =    17.65757 eV ==== 
     psi = 0.099*[#   1]+0.040*[#   2]+0.040*[#   3]+0.040*[#   4]
    |psi|^2 = 0.218
==== e(   6) =    24.66984 eV ==== 
     psi = 0.032*[#   2]+0.032*[#   3]+0.032*[#   4]
    |psi|^2 = 0.095
==== e(   7) =    26.23352 eV ==== 
     psi = 0.020*[#   2]+0.020*[#   3]+0.020*[#   4]+0.002*[#   1]
    |psi|^2 = 0.061
==== e(   8) =    28.24969 eV ==== 
     psi = 0.005*[#   1]
    |psi|^2 = 0.005
==== e(   9) =    29.59948 eV ==== 
     psi = 0.002*[#   2]+0.002*[#   3]+0.002*[#   4]
    |psi|^2 = 0.007
==== e(  10) =    33.14656 eV ==== 

    |psi|^2 = 0.002

 k =  -0.1767766953 -0.4419417382  0.4419417382
==== e(   1) =     4.14135 eV ==== 
     psi = 0.332*[#   2]+0.332*[#   3]+0.332*[#   4]
    |psi|^2 = 0.997
==== e(   2) =     4.41530 eV ==== 
     psi = 0.705*[#   1]+0.092*[#   2]+0.092*[#   3]+0.092*[#   4]
    |psi|^2 = 0.981
==== e(   3) =    12.94847 eV ==== 
     psi = 0.209*[#   1]+0.194*[#   2]+0.194*[#   3]+0.194*[#   4]
    |psi|^2 = 0.792
==== e(   4) =    16.27848 eV ==== 
     psi = 0.288*[#   2]+0.288*[#   3]+0.288*[#   4]
    |psi|^2 = 0.864
==== e(   5) =    18.11089 eV ==== 
     psi = 0.079*[#   1]+0.031*[#   2]+0.031*[#   3]+0.031*[#   4]
    |psi|^2 = 0.173
==== e(   6) =    24.10942 eV ==== 
     psi = 0.037*[#   2]+0.037*[#   3]+0.037*[#   4]
    |psi|^2 = 0.111
==== e(   7) =    26.63903 eV ==== 
     psi = 0.010*[#   2]+0.010*[#   3]+0.010*[#   4]
    |psi|^2 = 0.029
==== e(   8) =    29.21465 eV ==== 
     psi = 0.003*[#   1]+0.003*[#   2]+0.003*[#   3]+0.003*[#   4]
    |psi|^2 = 0.012
==== e(   9) =    29.88477 eV ==== 
     psi = 0.002*[#   2]+0.002*[#   3]+0.002*[#   4]
    |psi|^2 = 0.007
==== e(  10) =    31.49953 eV ==== 
     psi = 0.006*[#   2]+0.006*[#   3]+0.006*[#   4]
    |psi|^2 = 0.017

 k =  -0.1325825215 -0.3977475644  0.3977475644
==== e(   1) =     2.74663 eV ==== 
     psi = 0.315*[#   1]+0.227*[#   2]+0.227*[#   3]+0.227*[#   4]
    |psi|^2 = 0.995
==== e(   2) =     5.98635 eV ==== 
     psi = 0.373*[#   1]+0.202*[#   2]+0.202*[#   3]+0.202*[#   4]
    |psi|^2 = 0.978
==== e(   3) =    12.54296 eV ==== 
     psi = 0.235*[#   1]+0.200*[#   2]+0.200*[#   3]+0.200*[#   4]
    |psi|^2 = 0.836
==== e(   4) =    16.85892 eV ==== 
     psi = 0.275*[#   2]+0.275*[#   3]+0.275*[#   4]
    |psi|^2 = 0.826
==== e(   5) =    18.75217 eV ==== 
     psi = 0.070*[#   1]+0.023*[#   2]+0.023*[#   3]+0.023*[#   4]
    |psi|^2 = 0.139
==== e(   6) =    23.71778 eV ==== 
     psi = 0.042*[#   2]+0.042*[#   3]+0.042*[#   4]
    |psi|^2 = 0.127
==== e(   7) =    26.34242 eV ==== 
     psi = 0.008*[#   2]+0.008*[#   3]+0.008*[#   4]+0.001*[#   1]
    |psi|^2 = 0.024
==== e(   8) =    29.45863 eV ==== 
     psi = 0.014*[#   2]+0.014*[#   3]+0.014*[#   4]
    |psi|^2 = 0.043
==== e(   9) =    30.14057 eV ==== 
     psi = 0.004*[#   2]+0.004*[#   3]+0.004*[#   4]
    |psi|^2 = 0.012
==== e(  10) =    30.57260 eV ==== 
     psi = 0.001*[#   2]+0.001*[#   3]+0.001*[#   4]
    |psi|^2 = 0.005

 k =  -0.0883883476 -0.3535533906  0.3535533906
==== e(   1) =     1.41150 eV ==== 
     psi = 0.325*[#   1]+0.224*[#   2]+0.224*[#   3]+0.224*[#   4]
    |psi|^2 = 0.997
==== e(   2) =     7.85019 eV ==== 
     psi = 0.307*[#   1]+0.218*[#   2]+0.218*[#   3]+0.218*[#   4]
    |psi|^2 = 0.961
==== e(   3) =    12.35017 eV ==== 
     psi = 0.294*[#   1]+0.190*[#   2]+0.190*[#   3]+0.190*[#   4]
    |psi|^2 = 0.865
==== e(   4) =    17.62069 eV ==== 
     psi = 0.258*[#   2]+0.258*[#   3]+0.258*[#   4]
    |psi|^2 = 0.775
==== e(   5) =    19.57570 eV ==== 
     psi = 0.067*[#   1]+0.015*[#   2]+0.015*[#   3]+0.015*[#   4]
    |psi|^2 = 0.114
==== e(   6) =    23.49226 eV ==== 
     psi = 0.045*[#   2]+0.045*[#   3]+0.045*[#   4]
    |psi|^2 = 0.136
==== e(   7) =    26.01305 eV ==== 
     psi = 0.011*[#   2]+0.011*[#   3]+0.011*[#   4]+0.002*[#   1]
    |psi|^2 = 0.034
==== e(   8) =    27.42238 eV ==== 
     psi = 0.029*[#   2]+0.029*[#   3]+0.029*[#   4]
    |psi|^2 = 0.086
==== e(   9) =    29.75282 eV ==== 
     psi = 0.004*[#   2]+0.004*[#   3]+0.004*[#   4]+0.002*[#   1]
    |psi|^2 = 0.015
==== e(  10) =    31.46624 eV ==== 
     psi = 0.001*[#   2]+0.001*[#   3]+0.001*[#   4]
    |psi|^2 = 0.004

 k =  -0.0441941738 -0.3093592168  0.3093592168
==== e(   1) =     0.27069 eV ==== 
     psi = 0.334*[#   1]+0.221*[#   2]+0.221*[#   3]+0.221*[#   4]
    |psi|^2 = 0.998
==== e(   2) =     9.82246 eV ==== 
     psi = 0.252*[#   2]+0.252*[#   3]+0.252*[#   4]+0.179*[#   1]
    |psi|^2 = 0.933
==== e(   3) =    12.41721 eV ==== 
     psi = 0.411*[#   1]+0.156*[#   2]+0.156*[#   3]+0.156*[#   4]
    |psi|^2 = 0.880
==== e(   4) =    18.56151 eV ==== 
     psi = 0.237*[#   2]+0.237*[#   3]+0.237*[#   4]
    |psi|^2 = 0.711
==== e(   5) =    20.56914 eV ==== 
     psi = 0.065*[#   1]+0.010*[#   2]+0.010*[#   3]+0.010*[#   4]
    |psi|^2 = 0.096
==== e(   6) =    23.40306 eV ==== 
     psi = 0.037*[#   2]+0.037*[#   3]+0.037*[#   4]
    |psi|^2 = 0.111
==== e(   7) =    25.54684 eV ==== 
     psi = 0.058*[#   2]+0.058*[#   3]+0.058*[#   4]
    |psi|^2 = 0.175
==== e(   8) =    25.68407 eV ==== 
     psi = 0.018*[#   2]+0.018*[#   3]+0.018*[#   4]+0.002*[#   1]
    |psi|^2 = 0.056
==== e(   9) =    28.62937 eV ==== 
     psi = 0.007*[#   1]+0.004*[#   2]+0.004*[#   3]+0.004*[#   4]
    |psi|^2 = 0.018
==== e(  10) =    32.25961 eV ==== 
     psi = 0.001*[#   2]+0.001*[#   3]+0.001*[#   4]
    |psi|^2 = 0.004

 k =   0.0000000000 -0.2651650429  0.2651650429
==== e(   1) =    -0.66970 eV ==== 
     psi = 0.357*[#   1]+0.214*[#   2]+0.214*[#   3]+0.214*[#   4]
    |psi|^2 = 0.999
==== e(   2) =    11.57379 eV ==== 
     psi = 0.295*[#   2]+0.295*[#   3]+0.295*[#   4]
    |psi|^2 = 0.885
==== e(   3) =    13.05771 eV ==== 
     psi = 0.563*[#   1]+0.107*[#   2]+0.107*[#   3]+0.107*[#   4]
    |psi|^2 = 0.884
==== e(   4) =    19.67483 eV ==== 
     psi = 0.213*[#   2]+0.213*[#   3]+0.213*[#   4]
    |psi|^2 = 0.638
==== e(   5) =    21.70689 eV ==== 
     psi = 0.060*[#   1]+0.009*[#   2]+0.009*[#   3]+0.009*[#   4]
    |psi|^2 = 0.087
==== e(   6) =    23.11696 eV ==== 

    |psi|^2 = 0.000
==== e(   7) =    24.21470 eV ==== 
     psi = 0.119*[#   2]+0.119*[#   3]+0.119*[#   4]
    |psi|^2 = 0.358
==== e(   8) =    25.17449 eV ==== 
     psi = 0.031*[#   2]+0.031*[#   3]+0.031*[#   4]
    |psi|^2 = 0.093
==== e(   9) =    27.50914 eV ==== 
     psi = 0.017*[#   1]+0.003*[#   2]+0.003*[#   3]+0.003*[#   4]
    |psi|^2 = 0.026
==== e(  10) =    32.59831 eV ==== 

    |psi|^2 = 0.001

 k =   0.3535533906  0.0000000000  0.0000000000
==== e(   1) =    -0.94969 eV ==== 
     psi = 0.350*[#   1]+0.216*[#   2]+0.216*[#   3]+0.216*[#   4]
    |psi|^2 = 0.999
==== e(   2) =    15.47439 eV ==== 

    |psi|^2 = 0.000
==== e(   3) =    15.53069 eV ==== 
     psi = 0.302*[#   2]+0.302*[#   3]+0.302*[#   4]
    |psi|^2 = 0.906
==== e(   4) =    15.53069 eV ==== 
     psi = 0.302*[#   2]+0.302*[#   3]+0.302*[#   4]
    |psi|^2 = 0.906
==== e(   5) =    16.26820 eV ==== 
     psi = 0.230*[#   1]+0.043*[#   2]+0.043*[#   3]+0.043*[#   4]
    |psi|^2 = 0.359
==== e(   6) =    19.05352 eV ==== 
     psi = 0.418*[#   1]+0.073*[#   2]+0.073*[#   3]+0.073*[#   4]
    |psi|^2 = 0.639
==== e(   7) =    29.52442 eV ==== 

    |psi|^2 = 0.000
==== e(   8) =    30.00607 eV ==== 
     psi = 0.029*[#   2]+0.029*[#   3]+0.029*[#   4]
    |psi|^2 = 0.088
==== e(   9) =    30.00607 eV ==== 
     psi = 0.029*[#   2]+0.029*[#   3]+0.029*[#   4]
    |psi|^2 = 0.088
==== e(  10) =    34.20101 eV ==== 

    |psi|^2 = 0.000

 k =   0.3977475644  0.0441941738 -0.0441941738
==== e(   1) =    -0.28635 eV ==== 
     psi = 0.327*[#   1]+0.224*[#   2]+0.224*[#   3]+0.224*[#   4]
    |psi|^2 = 0.999
==== e(   2) =    13.37933 eV ==== 
     psi = 0.221*[#   2]+0.221*[#   3]+0.221*[#   4]+0.034*[#   1]
    |psi|^2 = 0.697
==== e(   3) =    14.83157 eV ==== 
     psi = 0.280*[#   1]+0.060*[#   2]+0.060*[#   3]+0.060*[#   4]
    |psi|^2 = 0.459
==== e(   4) =    15.13925 eV ==== 
     psi = 0.310*[#   2]+0.310*[#   3]+0.310*[#   4]
    |psi|^2 = 0.929
==== e(   5) =    16.19854 eV ==== 
     psi = 0.101*[#   1]+0.062*[#   2]+0.062*[#   3]+0.062*[#   4]
    |psi|^2 = 0.286
==== e(   6) =    19.23788 eV ==== 
     psi = 0.256*[#   1]+0.079*[#   2]+0.079*[#   3]+0.079*[#   4]
    |psi|^2 = 0.492
==== e(   7) =    29.14253 eV ==== 
     psi = 0.010*[#   2]+0.010*[#   3]+0.010*[#   4]
    |psi|^2 = 0.029
==== e(   8) =    30.57647 eV ==== 
     psi = 0.020*[#   2]+0.020*[#   3]+0.020*[#   4]
    |psi|^2 = 0.059
==== e(   9) =    31.52725 eV ==== 
     psi = 0.013*[#   2]+0.013*[#   3]+0.013*[#   4]
    |psi|^2 = 0.039
==== e(  10) =    33.95773 eV ==== 

    |psi|^2 = 0.001

 k =   0.4419417382  0.0883883476 -0.0883883476
==== e(   1) =     0.58142 eV ==== 
     psi = 0.314*[#   1]+0.228*[#   2]+0.228*[#   3]+0.228*[#   4]
    |psi|^2 = 0.998
==== e(   2) =    11.21151 eV ==== 
     psi = 0.251*[#   2]+0.251*[#   3]+0.251*[#   4]+0.108*[#   1]
    |psi|^2 = 0.861
==== e(   3) =    13.58572 eV ==== 
     psi = 0.321*[#   1]+0.090*[#   2]+0.090*[#   3]+0.090*[#   4]
    |psi|^2 = 0.591
==== e(   4) =    14.93007 eV ==== 
     psi = 0.314*[#   2]+0.314*[#   3]+0.314*[#   4]
    |psi|^2 = 0.941
==== e(   5) =    16.40092 eV ==== 
     psi = 0.162*[#   1]+0.023*[#   2]+0.023*[#   3]+0.023*[#   4]
    |psi|^2 = 0.231
==== e(   6) =    20.45991 eV ==== 
     psi = 0.093*[#   1]+0.061*[#   2]+0.061*[#   3]+0.061*[#   4]
    |psi|^2 = 0.276
==== e(   7) =    28.31627 eV ==== 
     psi = 0.013*[#   2]+0.013*[#   3]+0.013*[#   4]
    |psi|^2 = 0.038
==== e(   8) =    30.57420 eV ==== 
     psi = 0.011*[#   2]+0.011*[#   3]+0.011*[#   4]+0.001*[#   1]
    |psi|^2 = 0.035
==== e(   9) =    33.02155 eV ==== 
     psi = 0.006*[#   2]+0.006*[#   3]+0.006*[#   4]
    |psi|^2 = 0.017
==== e(  10) =    33.15167 eV ==== 

    |psi|^2 = 0.001

 k =   0.4861359121  0.1325825215 -0.1325825215
==== e(   1) =     1.64921 eV ==== 
     psi = 0.307*[#   1]+0.230*[#   2]+0.230*[#   3]+0.230*[#   4]
    |psi|^2 = 0.997
==== e(   2) =     9.14177 eV ==== 
     psi = 0.250*[#   2]+0.250*[#   3]+0.250*[#   4]+0.188*[#   1]
    |psi|^2 = 0.938
==== e(   3) =    12.52339 eV ==== 
     psi = 0.325*[#   1]+0.126*[#   2]+0.126*[#   3]+0.126*[#   4]
    |psi|^2 = 0.702
==== e(   4) =    14.90284 eV ==== 
     psi = 0.315*[#   2]+0.315*[#   3]+0.315*[#   4]
    |psi|^2 = 0.944
==== e(   5) =    16.51674 eV ==== 
     psi = 0.143*[#   1]+0.020*[#   2]+0.020*[#   3]+0.020*[#   4]
    |psi|^2 = 0.203
==== e(   6) =    22.18771 eV ==== 
     psi = 0.034*[#   2]+0.034*[#   3]+0.034*[#   4]+0.032*[#   1]
    |psi|^2 = 0.135
==== e(   7) =    27.47412 eV ==== 
     psi = 0.015*[#   2]+0.015*[#   3]+0.015*[#   4]
    |psi|^2 = 0.045
==== e(   8) =    30.20898 eV ==== 
     psi = 0.006*[#   2]+0.006*[#   3]+0.006*[#   4]+0.001*[#   1]
    |psi|^2 = 0.018
==== e(   9) =    32.71130 eV ==== 

    |psi|^2 = 0.003
==== e(  10) =    33.92650 eV ==== 

    |psi|^2 = 0.003

 k =  -0.1767766953 -0.5303300859  0.5303300859
==== e(   1) =     2.91042 eV ==== 
     psi = 0.296*[#   1]+0.233*[#   2]+0.233*[#   3]+0.233*[#   4]
    |psi|^2 = 0.994
==== e(   2) =     7.21831 eV ==== 
     psi = 0.259*[#   1]+0.237*[#   2]+0.237*[#   3]+0.237*[#   4]
    |psi|^2 = 0.971
==== e(   3) =    11.65251 eV ==== 
     psi = 0.317*[#   1]+0.155*[#   2]+0.155*[#   3]+0.155*[#   4]
    |psi|^2 = 0.783
==== e(   4) =    15.05749 eV ==== 
     psi = 0.312*[#   2]+0.312*[#   3]+0.312*[#   4]
    |psi|^2 = 0.936
==== e(   5) =    16.74986 eV ==== 
     psi = 0.112*[#   1]+0.019*[#   2]+0.019*[#   3]+0.019*[#   4]
    |psi|^2 = 0.168
==== e(   6) =    24.14123 eV ==== 
     psi = 0.018*[#   2]+0.018*[#   3]+0.018*[#   4]+0.012*[#   1]
    |psi|^2 = 0.065
==== e(   7) =    26.73244 eV ==== 
     psi = 0.018*[#   2]+0.018*[#   3]+0.018*[#   4]
    |psi|^2 = 0.054
==== e(   8) =    29.64374 eV ==== 
     psi = 0.003*[#   2]+0.003*[#   3]+0.003*[#   4]+0.001*[#   1]
    |psi|^2 = 0.010
==== e(   9) =    32.61459 eV ==== 
     psi = 0.001*[#   2]+0.001*[#   3]+0.001*[#   4]
    |psi|^2 = 0.004
==== e(  10) =    33.37975 eV ==== 

    |psi|^2 = 0.002

 k =  -0.1325825215 -0.4861359121  0.4861359121
==== e(   1) =     4.34576 eV ==== 
     psi = 0.254*[#   2]+0.254*[#   3]+0.254*[#   4]+0.227*[#   1]
    |psi|^2 = 0.990
==== e(   2) =     5.47266 eV ==== 
     psi = 0.355*[#   1]+0.210*[#   2]+0.210*[#   3]+0.210*[#   4]
    |psi|^2 = 0.984
==== e(   3) =    10.98170 eV ==== 
     psi = 0.318*[#   1]+0.173*[#   2]+0.173*[#   3]+0.173*[#   4]
    |psi|^2 = 0.838
==== e(   4) =    15.39427 eV ==== 
     psi = 0.306*[#   2]+0.306*[#   3]+0.306*[#   4]
    |psi|^2 = 0.919
==== e(   5) =    17.15539 eV ==== 
     psi = 0.091*[#   1]+0.015*[#   2]+0.015*[#   3]+0.015*[#   4]
    |psi|^2 = 0.137
==== e(   6) =    26.13416 eV ==== 
     psi = 0.021*[#   2]+0.021*[#   3]+0.021*[#   4]
    |psi|^2 = 0.063
==== e(   7) =    26.14173 eV ==== 
     psi = 0.009*[#   2]+0.009*[#   3]+0.009*[#   4]+0.004*[#   1]
    |psi|^2 = 0.032
==== e(   8) =    29.09036 eV ==== 
     psi = 0.002*[#   2]+0.002*[#   3]+0.002*[#   4]+0.002*[#   1]
    |psi|^2 = 0.007
==== e(   9) =    31.60835 eV ==== 
     psi = 0.004*[#   2]+0.004*[#   3]+0.004*[#   4]
    |psi|^2 = 0.013
==== e(  10) =    32.65726 eV ==== 
     psi = 0.002*[#   2]+0.002*[#   3]+0.002*[#   4]
    |psi|^2 = 0.005

 k =  -0.0883883476 -0.4419417382  0.4419417382
==== e(   1) =     3.86304 eV ==== 
     psi = 0.264*[#   1]+0.243*[#   2]+0.243*[#   3]+0.243*[#   4]
    |psi|^2 = 0.994
==== e(   2) =     5.99181 eV ==== 
     psi = 0.299*[#   1]+0.227*[#   2]+0.227*[#   3]+0.227*[#   4]
    |psi|^2 = 0.979
==== e(   3) =    10.52612 eV ==== 
     psi = 0.351*[#   1]+0.174*[#   2]+0.174*[#   3]+0.174*[#   4]
    |psi|^2 = 0.874
==== e(   4) =    15.91337 eV ==== 
     psi = 0.297*[#   2]+0.297*[#   3]+0.297*[#   4]
    |psi|^2 = 0.891
==== e(   5) =    17.74658 eV ==== 
     psi = 0.080*[#   1]+0.011*[#   2]+0.011*[#   3]+0.011*[#   4]
    |psi|^2 = 0.114
==== e(   6) =    25.69518 eV ==== 
     psi = 0.024*[#   2]+0.024*[#   3]+0.024*[#   4]
    |psi|^2 = 0.072
==== e(   7) =    27.61875 eV ==== 
     psi = 0.006*[#   2]+0.006*[#   3]+0.006*[#   4]
    |psi|^2 = 0.019
==== e(   8) =    28.96103 eV ==== 
     psi = 0.002*[#   1]+0.002*[#   2]+0.002*[#   3]+0.002*[#   4]
    |psi|^2 = 0.007
==== e(   9) =    29.48540 eV ==== 
     psi = 0.011*[#   2]+0.011*[#   3]+0.011*[#   4]
    |psi|^2 = 0.034
==== e(  10) =    32.60742 eV ==== 
     psi = 0.002*[#   2]+0.002*[#   3]+0.002*[#   4]+0.002*[#   1]
    |psi|^2 = 0.008

 k =  -0.0441941738 -0.3977475644  0.3977475644
==== e(   1) =     2.47404 eV ==== 
     psi = 0.299*[#   1]+0.232*[#   2]+0.232*[#   3]+0.232*[#   4]
    |psi|^2 = 0.996
==== e(   2) =     7.71618 eV ==== 
     psi = 0.266*[#   2]+0.266*[#   3]+0.266*[#   4]+0.169*[#   1]
    |psi|^2 = 0.968
==== e(   3) =    10.33773 eV ==== 
     psi = 0.450*[#   1]+0.148*[#   2]+0.148*[#   3]+0.148*[#   4]
    |psi|^2 = 0.893
==== e(   4) =    16.61495 eV ==== 
     psi = 0.284*[#   2]+0.284*[#   3]+0.284*[#   4]
    |psi|^2 = 0.851
==== e(   5) =    18.52211 eV ==== 
     psi = 0.075*[#   1]+0.008*[#   2]+0.008*[#   3]+0.008*[#   4]
    |psi|^2 = 0.100
==== e(   6) =    25.41093 eV ==== 
     psi = 0.024*[#   2]+0.024*[#   3]+0.024*[#   4]
    |psi|^2 = 0.072
==== e(   7) =    27.38328 eV ==== 
     psi = 0.025*[#   2]+0.025*[#   3]+0.025*[#   4]
    |psi|^2 = 0.075
==== e(   8) =    27.50415 eV ==== 
     psi = 0.008*[#   2]+0.008*[#   3]+0.008*[#   4]
    |psi|^2 = 0.024
==== e(   9) =    29.57053 eV ==== 

    |psi|^2 = 0.002
==== e(  10) =    32.71844 eV ==== 
     psi = 0.003*[#   1]+0.002*[#   2]+0.002*[#   3]+0.002*[#   4]
    |psi|^2 = 0.009

 k =   0.0000000000 -0.3535533906  0.3535533906
==== e(   1) =     1.27365 eV ==== 
     psi = 0.316*[#   1]+0.227*[#   2]+0.227*[#   3]+0.227*[#   4]
    |psi|^2 = 0.998
==== e(   2) =     9.21563 eV ==== 
     psi = 0.318*[#   2]+0.318*[#   3]+0.318*[#   4]
    |psi|^2 = 0.954
==== e(   3) =    10.75121 eV ==== 
     psi = 0.605*[#   1]+0.097*[#   2]+0.097*[#   3]+0.097*[#   4]
    |psi|^2 = 0.895
==== e(   4) =    17.49846 eV ==== 
     psi = 0.264*[#   2]+0.264*[#   3]+0.264*[#   4]
    |psi|^2 = 0.793
==== e(   5) =    19.47134 eV ==== 
     psi = 0.071*[#   1]+0.008*[#   2]+0.008*[#   3]+0.008*[#   4]
    |psi|^2 = 0.094
==== e(   6) =    25.01854 eV ==== 

    |psi|^2 = 0.000
==== e(   7) =    25.68407 eV ==== 
     psi = 0.068*[#   2]+0.068*[#   3]+0.068*[#   4]
    |psi|^2 = 0.204
==== e(   8) =    26.79228 eV ==== 
     psi = 0.013*[#   2]+0.013*[#   3]+0.013*[#   4]
    |psi|^2 = 0.039
==== e(   9) =    29.21933 eV ==== 
     psi = 0.004*[#   1]
    |psi|^2 = 0.004
==== e(  10) =    33.36164 eV ==== 

    |psi|^2 = 0.003

 k =   0.4419417382  0.0000000000  0.0000000000
==== e(   1) =     0.30407 eV ==== 
     psi = 0.315*[#   1]+0.228*[#   2]+0.228*[#   3]+0.228*[#   4]
    |psi|^2 = 0.998
==== e(   2) =    13.31260 eV ==== 
     psi = 0.354*[#   1]+0.061*[#   2]+0.061*[#   3]+0.061*[#   4]
    |psi|^2 = 0.537
==== e(   3) =    14.50341 eV ==== 

    |psi|^2 = 0.000
==== e(   4) =    14.68568 eV ==== 
     psi = 0.317*[#   2]+0.317*[#   3]+0.317*[#   4]
    |psi|^2 = 0.950
==== e(   5) =    14.68568 eV ==== 
     psi = 0.317*[#   2]+0.317*[#   3]+0.317*[#   4]
    |psi|^2 = 0.950
==== e(   6) =    18.23496 eV ==== 
     psi = 0.329*[#   1]+0.044*[#   2]+0.044*[#   3]+0.044*[#   4]
    |psi|^2 = 0.462
==== e(   7) =    30.61364 eV ==== 

    |psi|^2 = 0.000
==== e(   8) =    31.85302 eV ==== 
     psi = 0.016*[#   2]+0.016*[#   3]+0.016*[#   4]
    |psi|^2 = 0.047
==== e(   9) =    31.85302 eV ==== 
     psi = 0.016*[#   2]+0.016*[#   3]+0.016*[#   4]
    |psi|^2 = 0.047
==== e(  10) =    36.42043 eV ==== 
     psi = 0.001*[#   1]
    |psi|^2 = 0.001

 k =   0.4861359121  0.0441941738 -0.0441941738
==== e(   1) =     1.09824 eV ==== 
     psi = 0.308*[#   1]+0.230*[#   2]+0.230*[#   3]+0.230*[#   4]
    |psi|^2 = 0.997
==== e(   2) =    11.95998 eV ==== 
     psi = 0.337*[#   1]+0.102*[#   2]+0.102*[#   3]+0.102*[#   4]
    |psi|^2 = 0.643
==== e(   3) =    12.62818 eV ==== 
     psi = 0.203*[#   2]+0.203*[#   3]+0.203*[#   4]+0.093*[#   1]
    |psi|^2 = 0.702
==== e(   4) =    14.41470 eV ==== 
     psi = 0.321*[#   2]+0.321*[#   3]+0.321*[#   4]
    |psi|^2 = 0.963
==== e(   5) =    15.40522 eV ==== 
     psi = 0.069*[#   1]+0.069*[#   2]+0.069*[#   3]+0.069*[#   4]
    |psi|^2 = 0.276
==== e(   6) =    18.52877 eV ==== 
     psi = 0.191*[#   1]+0.052*[#   2]+0.052*[#   3]+0.052*[#   4]
    |psi|^2 = 0.347
==== e(   7) =    30.36457 eV ==== 
     psi = 0.005*[#   2]+0.005*[#   3]+0.005*[#   4]
    |psi|^2 = 0.015
==== e(   8) =    32.27645 eV ==== 
     psi = 0.010*[#   2]+0.010*[#   3]+0.010*[#   4]
    |psi|^2 = 0.029
==== e(   9) =    33.20630 eV ==== 
     psi = 0.006*[#   2]+0.006*[#   3]+0.006*[#   4]
    |psi|^2 = 0.018
==== e(  10) =    36.27280 eV ==== 

    |psi|^2 = 0.001

 k =   0.5303300859  0.0883883476 -0.0883883476
==== e(   1) =     2.09132 eV ==== 
     psi = 0.301*[#   1]+0.232*[#   2]+0.232*[#   3]+0.232*[#   4]
    |psi|^2 = 0.995
==== e(   2) =    10.47521 eV ==== 
     psi = 0.285*[#   2]+0.285*[#   3]+0.285*[#   4]
    |psi|^2 = 0.855
==== e(   3) =    10.94128 eV ==== 
     psi = 0.510*[#   1]+0.085*[#   2]+0.085*[#   3]+0.085*[#   4]
    |psi|^2 = 0.764
==== e(   4) =    14.32582 eV ==== 
     psi = 0.322*[#   2]+0.322*[#   3]+0.322*[#   4]
    |psi|^2 = 0.967
==== e(   5) =    15.73350 eV ==== 
     psi = 0.119*[#   1]+0.018*[#   2]+0.018*[#   3]+0.018*[#   4]
    |psi|^2 = 0.172
==== e(   6) =    19.87716 eV ==== 
     psi = 0.068*[#   1]+0.041*[#   2]+0.041*[#   3]+0.041*[#   4]
    |psi|^2 = 0.191
==== e(   7) =    29.63250 eV ==== 
     psi = 0.008*[#   2]+0.008*[#   3]+0.008*[#   4]
    |psi|^2 = 0.024
==== e(   8) =    32.04316 eV ==== 
     psi = 0.005*[#   2]+0.005*[#   3]+0.005*[#   4]
    |psi|^2 = 0.015
==== e(   9) =    34.20520 eV ==== 

    |psi|^2 = 0.003
==== e(  10) =    35.87976 eV ==== 

    |psi|^2 = 0.001

 k =  -0.1325825215 -0.5745242597  0.5745242597
==== e(   1) =     3.27522 eV ==== 
     psi = 0.281*[#   1]+0.237*[#   2]+0.237*[#   3]+0.237*[#   4]
    |psi|^2 = 0.992
==== e(   2) =     8.59080 eV ==== 
     psi = 0.281*[#   2]+0.281*[#   3]+0.281*[#   4]+0.105*[#   1]
    |psi|^2 = 0.947
==== e(   3) =     9.94662 eV ==== 
     psi = 0.475*[#   1]+0.116*[#   2]+0.116*[#   3]+0.116*[#   4]
    |psi|^2 = 0.822
==== e(   4) =    14.41890 eV ==== 
     psi = 0.321*[#   2]+0.321*[#   3]+0.321*[#   4]
    |psi|^2 = 0.963
==== e(   5) =    15.98371 eV ==== 
     psi = 0.111*[#   1]+0.007*[#   2]+0.007*[#   3]+0.007*[#   4]
    |psi|^2 = 0.134
==== e(   6) =    21.73617 eV ==== 
     psi = 0.025*[#   1]+0.022*[#   2]+0.022*[#   3]+0.022*[#   4]
    |psi|^2 = 0.089
==== e(   7) =    28.90645 eV ==== 
     psi = 0.010*[#   2]+0.010*[#   3]+0.010*[#   4]
    |psi|^2 = 0.030
==== e(   8) =    31.45504 eV ==== 
     psi = 0.003*[#   2]+0.003*[#   3]+0.003*[#   4]
    |psi|^2 = 0.008
==== e(   9) =    33.67506 eV ==== 

    |psi|^2 = 0.001
==== e(  10) =    35.64853 eV ==== 

    |psi|^2 = 0.002

 k =  -0.0883883476 -0.5303300859  0.5303300859
==== e(   1) =     4.63114 eV ==== 
     psi = 0.254*[#   2]+0.254*[#   3]+0.254*[#   4]+0.225*[#   1]
    |psi|^2 = 0.988
==== e(   2) =     6.81109 eV ==== 
     psi = 0.258*[#   2]+0.258*[#   3]+0.258*[#   4]+0.204*[#   1]
    |psi|^2 = 0.977
==== e(   3) =     9.20958 eV ==== 
     psi = 0.463*[#   1]+0.136*[#   2]+0.136*[#   3]+0.136*[#   4]
    |psi|^2 = 0.870
==== e(   4) =    14.69401 eV ==== 
     psi = 0.317*[#   2]+0.317*[#   3]+0.317*[#   4]
    |psi|^2 = 0.951
==== e(   5) =    16.35418 eV ==== 
     psi = 0.095*[#   1]+0.005*[#   2]+0.005*[#   3]+0.005*[#   4]
    |psi|^2 = 0.110
==== e(   6) =    23.83079 eV ==== 
     psi = 0.010*[#   2]+0.010*[#   3]+0.010*[#   4]+0.010*[#   1]
    |psi|^2 = 0.041
==== e(   7) =    28.28956 eV ==== 
     psi = 0.012*[#   2]+0.012*[#   3]+0.012*[#   4]
    |psi|^2 = 0.037
==== e(   8) =    30.71135 eV ==== 
     psi = 0.002*[#   2]+0.002*[#   3]+0.002*[#   4]
    |psi|^2 = 0.007
==== e(   9) =    31.86655 eV ==== 
     psi = 0.003*[#   2]+0.003*[#   3]+0.003*[#   4]
    |psi|^2 = 0.009
==== e(  10) =    35.30514 eV ==== 
     psi = 0.001*[#   1]
    |psi|^2 = 0.002

 k =  -0.0441941738 -0.4861359121  0.4861359121
==== e(   1) =     5.16138 eV ==== 
     psi = 0.270*[#   2]+0.270*[#   3]+0.270*[#   4]+0.181*[#   1]
    |psi|^2 = 0.990
==== e(   2) =     6.14007 eV ==== 
     psi = 0.259*[#   2]+0.259*[#   3]+0.259*[#   4]+0.204*[#   1]
    |psi|^2 = 0.981
==== e(   3) =     8.74449 eV ==== 
     psi = 0.522*[#   1]+0.124*[#   2]+0.124*[#   3]+0.124*[#   4]
    |psi|^2 = 0.895
==== e(   4) =    15.15149 eV ==== 
     psi = 0.310*[#   2]+0.310*[#   3]+0.310*[#   4]
    |psi|^2 = 0.930
==== e(   5) =    16.89683 eV ==== 
     psi = 0.085*[#   1]+0.004*[#   2]+0.004*[#   3]+0.004*[#   4]
    |psi|^2 = 0.098
==== e(   6) =    26.01808 eV ==== 
     psi = 0.005*[#   2]+0.005*[#   3]+0.005*[#   4]+0.004*[#   1]
    |psi|^2 = 0.019
==== e(   7) =    27.81768 eV ==== 
     psi = 0.014*[#   2]+0.014*[#   3]+0.014*[#   4]
    |psi|^2 = 0.043
==== e(   8) =    29.68358 eV ==== 
     psi = 0.008*[#   2]+0.008*[#   3]+0.008*[#   4]
    |psi|^2 = 0.025
==== e(   9) =    29.85671 eV ==== 
     psi = 0.003*[#   2]+0.003*[#   3]+0.003*[#   4]
    |psi|^2 = 0.009
==== e(  10) =    34.51715 eV ==== 
     psi = 0.003*[#   1]
    |psi|^2 = 0.003

 k =   0.0000000000 -0.4419417382  0.4419417382
==== e(   1) =     3.72987 eV ==== 
     psi = 0.265*[#   1]+0.243*[#   2]+0.243*[#   3]+0.243*[#   4]
    |psi|^2 = 0.994
==== e(   2) =     7.38306 eV ==== 
     psi = 0.327*[#   2]+0.327*[#   3]+0.327*[#   4]
    |psi|^2 = 0.982
==== e(   3) =     8.89112 eV ==== 
     psi = 0.649*[#   1]+0.082*[#   2]+0.082*[#   3]+0.082*[#   4]
    |psi|^2 = 0.895
==== e(   4) =    15.79173 eV ==== 
     psi = 0.300*[#   2]+0.300*[#   3]+0.300*[#   4]
    |psi|^2 = 0.899
==== e(   5) =    17.62177 eV ==== 
     psi = 0.079*[#   1]+0.005*[#   2]+0.005*[#   3]+0.005*[#   4]
    |psi|^2 = 0.095
==== e(   6) =    27.41714 eV ==== 

    |psi|^2 = 0.000
==== e(   7) =    27.58895 eV ==== 
     psi = 0.033*[#   2]+0.033*[#   3]+0.033*[#   4]
    |psi|^2 = 0.099
==== e(   8) =    28.08216 eV ==== 
     psi = 0.002*[#   2]+0.002*[#   3]+0.002*[#   4]+0.001*[#   1]
    |psi|^2 = 0.008
==== e(   9) =    28.82593 eV ==== 
     psi = 0.005*[#   2]+0.005*[#   3]+0.005*[#   4]
    |psi|^2 = 0.016
==== e(  10) =    33.53900 eV ==== 
     psi = 0.004*[#   1]
    |psi|^2 = 0.005

 k =   0.5303300859  0.0000000000  0.0000000000
==== e(   1) =     1.81713 eV ==== 
     psi = 0.306*[#   1]+0.230*[#   2]+0.230*[#   3]+0.230*[#   4]
    |psi|^2 = 0.995
==== e(   2) =    10.57584 eV ==== 
     psi = 0.459*[#   1]+0.081*[#   2]+0.081*[#   3]+0.081*[#   4]
    |psi|^2 = 0.703
==== e(   3) =    13.80525 eV ==== 

    |psi|^2 = 0.000
==== e(   4) =    14.08215 eV ==== 
     psi = 0.325*[#   2]+0.325*[#   3]+0.325*[#   4]
    |psi|^2 = 0.976
==== e(   5) =    14.08215 eV ==== 
     psi = 0.325*[#   2]+0.325*[#   3]+0.325*[#   4]
[...]
     psi = 0.053*[#   1]+0.048*[#   2]+0.048*[#   3]+0.048*[#   4]
    |psi|^2 = 0.196
==== e(   7) =    27.37045 eV ==== 
     psi = 0.008*[#   2]+0.008*[#   3]+0.008*[#   4]+0.002*[#   1]
    |psi|^2 = 0.026
==== e(   8) =    32.96058 eV ==== 

    |psi|^2 = 0.002
==== e(   9) =    33.02271 eV ==== 
     psi = 0.004*[#   2]+0.004*[#   3]+0.004*[#   4]
    |psi|^2 = 0.013
==== e(  10) =    36.30085 eV ==== 
     psi = 0.001*[#   2]+0.001*[#   3]+0.001*[#   4]
    |psi|^2 = 0.004

 k =  -0.1325825215 -0.4861359121  0.6629126074
==== e(   1) =     3.54627 eV ==== 
     psi = 0.268*[#   1]+0.242*[#   2]+0.242*[#   3]+0.242*[#   4]
    |psi|^2 = 0.993
==== e(   2) =     8.75122 eV ==== 
     psi = 0.293*[#   2]+0.293*[#   3]+0.293*[#   4]+0.068*[#   1]
    |psi|^2 = 0.947
==== e(   3) =    10.12932 eV ==== 
     psi = 0.238*[#   1]+0.205*[#   2]+0.205*[#   3]+0.205*[#   4]
    |psi|^2 = 0.855
==== e(   4) =    11.47016 eV ==== 
     psi = 0.389*[#   1]+0.189*[#   2]+0.189*[#   3]+0.189*[#   4]
    |psi|^2 = 0.956
==== e(   5) =    19.38790 eV ==== 
     psi = 0.029*[#   2]+0.029*[#   3]+0.029*[#   4]+0.009*[#   1]
    |psi|^2 = 0.097
==== e(   6) =    22.10546 eV ==== 
     psi = 0.027*[#   2]+0.027*[#   3]+0.027*[#   4]+0.021*[#   1]
    |psi|^2 = 0.102
==== e(   7) =    26.58704 eV ==== 
     psi = 0.007*[#   2]+0.007*[#   3]+0.007*[#   4]+0.003*[#   1]
    |psi|^2 = 0.024
==== e(   8) =    31.55382 eV ==== 
     psi = 0.002*[#   2]+0.002*[#   3]+0.002*[#   4]+0.001*[#   1]
    |psi|^2 = 0.006
==== e(   9) =    33.53978 eV ==== 
     psi = 0.002*[#   2]+0.002*[#   3]+0.002*[#   4]
    |psi|^2 = 0.006
==== e(  10) =    36.57645 eV ==== 

    |psi|^2 = 0.003

 k =  -0.0883883476 -0.4419417382  0.6187184335
==== e(   1) =     4.89894 eV ==== 
     psi = 0.261*[#   2]+0.261*[#   3]+0.261*[#   4]+0.207*[#   1]
    |psi|^2 = 0.989
==== e(   2) =     7.04227 eV ==== 
     psi = 0.268*[#   2]+0.268*[#   3]+0.268*[#   4]+0.172*[#   1]
    |psi|^2 = 0.977
==== e(   3) =     9.44371 eV ==== 
     psi = 0.325*[#   1]+0.192*[#   2]+0.192*[#   3]+0.192*[#   4]
    |psi|^2 = 0.900
==== e(   4) =    11.62836 eV ==== 
     psi = 0.269*[#   1]+0.221*[#   2]+0.221*[#   3]+0.221*[#   4]
    |psi|^2 = 0.931
==== e(   5) =    19.86150 eV ==== 
     psi = 0.030*[#   2]+0.030*[#   3]+0.030*[#   4]+0.011*[#   1]
    |psi|^2 = 0.101
==== e(   6) =    24.02668 eV ==== 
     psi = 0.015*[#   2]+0.015*[#   3]+0.015*[#   4]+0.006*[#   1]
    |psi|^2 = 0.050
==== e(   7) =    25.94207 eV ==== 
     psi = 0.005*[#   2]+0.005*[#   3]+0.005*[#   4]+0.004*[#   1]
    |psi|^2 = 0.020
==== e(   8) =    29.60316 eV ==== 
     psi = 0.004*[#   2]+0.004*[#   3]+0.004*[#   4]+0.003*[#   1]
    |psi|^2 = 0.016
==== e(   9) =    33.37912 eV ==== 

    |psi|^2 = 0.003
==== e(  10) =    36.47198 eV ==== 
     psi = 0.001*[#   2]+0.001*[#   3]+0.001*[#   4]
    |psi|^2 = 0.004

 k =  -0.0441941738 -0.3977475644  0.5745242597
==== e(   1) =     5.41653 eV ==== 
     psi = 0.274*[#   2]+0.274*[#   3]+0.274*[#   4]+0.168*[#   1]
    |psi|^2 = 0.989
==== e(   2) =     6.40329 eV ==== 
     psi = 0.268*[#   2]+0.268*[#   3]+0.268*[#   4]+0.179*[#   1]
    |psi|^2 = 0.983
==== e(   3) =     8.99394 eV ==== 
     psi = 0.404*[#   1]+0.172*[#   2]+0.172*[#   3]+0.172*[#   4]
    |psi|^2 = 0.921
==== e(   4) =    12.07193 eV ==== 
     psi = 0.228*[#   2]+0.228*[#   3]+0.228*[#   4]+0.226*[#   1]
    |psi|^2 = 0.911
==== e(   5) =    20.40473 eV ==== 
     psi = 0.030*[#   2]+0.030*[#   3]+0.030*[#   4]+0.011*[#   1]
    |psi|^2 = 0.101
==== e(   6) =    25.09138 eV ==== 
     psi = 0.010*[#   2]+0.010*[#   3]+0.010*[#   4]
    |psi|^2 = 0.030
==== e(   7) =    26.19949 eV ==== 
     psi = 0.005*[#   2]+0.005*[#   3]+0.005*[#   4]+0.002*[#   1]
    |psi|^2 = 0.017
==== e(   8) =    27.78520 eV ==== 
     psi = 0.008*[#   1]+0.008*[#   2]+0.008*[#   3]+0.008*[#   4]
    |psi|^2 = 0.032
==== e(   9) =    32.79342 eV ==== 
     psi = 0.001*[#   2]+0.001*[#   3]+0.001*[#   4]
    |psi|^2 = 0.003
==== e(  10) =    36.14851 eV ==== 
     psi = 0.002*[#   2]+0.002*[#   3]+0.002*[#   4]
    |psi|^2 = 0.006

 k =   0.0000000000 -0.3535533906  0.5303300859
==== e(   1) =     3.99480 eV ==== 
     psi = 0.253*[#   1]+0.247*[#   2]+0.247*[#   3]+0.247*[#   4]
    |psi|^2 = 0.994
==== e(   2) =     7.64469 eV ==== 
     psi = 0.326*[#   2]+0.326*[#   3]+0.326*[#   4]
    |psi|^2 = 0.978
==== e(   3) =     9.14257 eV ==== 
     psi = 0.511*[#   1]+0.138*[#   2]+0.138*[#   3]+0.138*[#   4]
    |psi|^2 = 0.923
==== e(   4) =    12.73538 eV ==== 
     psi = 0.223*[#   2]+0.223*[#   3]+0.223*[#   4]+0.214*[#   1]
    |psi|^2 = 0.884
==== e(   5) =    21.08602 eV ==== 
     psi = 0.032*[#   2]+0.032*[#   3]+0.032*[#   4]+0.009*[#   1]
    |psi|^2 = 0.105
==== e(   6) =    24.33446 eV ==== 
     psi = 0.005*[#   2]+0.005*[#   3]+0.005*[#   4]
    |psi|^2 = 0.014
==== e(   7) =    25.59859 eV ==== 
     psi = 0.020*[#   2]+0.020*[#   3]+0.020*[#   4]+0.007*[#   1]
    |psi|^2 = 0.067
==== e(   8) =    28.83718 eV ==== 
     psi = 0.004*[#   1]+0.003*[#   2]+0.003*[#   3]+0.003*[#   4]
    |psi|^2 = 0.013
==== e(   9) =    31.89793 eV ==== 
     psi = 0.002*[#   2]+0.002*[#   3]+0.002*[#   4]
    |psi|^2 = 0.006
==== e(  10) =    35.29232 eV ==== 
     psi = 0.003*[#   2]+0.003*[#   3]+0.003*[#   4]
    |psi|^2 = 0.009

 k =  -0.0883883476 -0.5303300859  0.7071067812
==== e(   1) =     4.09726 eV ==== 
     psi = 0.248*[#   2]+0.248*[#   3]+0.248*[#   4]+0.246*[#   1]
    |psi|^2 = 0.990
==== e(   2) =     8.61153 eV ==== 
     psi = 0.369*[#   1]+0.171*[#   2]+0.171*[#   3]+0.171*[#   4]
    |psi|^2 = 0.881
==== e(   3) =     9.87127 eV ==== 
     psi = 0.296*[#   2]+0.296*[#   3]+0.296*[#   4]
    |psi|^2 = 0.889
==== e(   4) =    11.42675 eV ==== 
     psi = 0.341*[#   1]+0.209*[#   2]+0.209*[#   3]+0.209*[#   4]
    |psi|^2 = 0.968
==== e(   5) =    18.27879 eV ==== 
     psi = 0.035*[#   2]+0.035*[#   3]+0.035*[#   4]
    |psi|^2 = 0.104
==== e(   6) =    20.37070 eV ==== 
     psi = 0.041*[#   1]+0.031*[#   2]+0.031*[#   3]+0.031*[#   4]
    |psi|^2 = 0.132
==== e(   7) =    28.87420 eV ==== 
     psi = 0.005*[#   2]+0.005*[#   3]+0.005*[#   4]+0.001*[#   1]
    |psi|^2 = 0.016
==== e(   8) =    32.08006 eV ==== 
     psi = 0.001*[#   2]+0.001*[#   3]+0.001*[#   4]
    |psi|^2 = 0.005
==== e(   9) =    34.50435 eV ==== 
     psi = 0.001*[#   2]+0.001*[#   3]+0.001*[#   4]
    |psi|^2 = 0.004
==== e(  10) =    38.71174 eV ==== 

    |psi|^2 = 0.001

 k =  -0.0441941738 -0.4861359121  0.6629126074
==== e(   1) =     5.32234 eV ==== 
     psi = 0.280*[#   2]+0.280*[#   3]+0.280*[#   4]+0.147*[#   1]
    |psi|^2 = 0.988
==== e(   2) =     7.83349 eV ==== 
     psi = 0.304*[#   1]+0.205*[#   2]+0.205*[#   3]+0.205*[#   4]
    |psi|^2 = 0.920
==== e(   3) =     8.56215 eV ==== 
     psi = 0.240*[#   2]+0.240*[#   3]+0.240*[#   4]+0.226*[#   1]
    |psi|^2 = 0.947
==== e(   4) =    11.16571 eV ==== 
     psi = 0.291*[#   1]+0.218*[#   2]+0.218*[#   3]+0.218*[#   4]
    |psi|^2 = 0.944
==== e(   5) =    19.13658 eV ==== 
     psi = 0.027*[#   2]+0.027*[#   3]+0.027*[#   4]+0.007*[#   1]
    |psi|^2 = 0.090
==== e(   6) =    21.88894 eV ==== 
     psi = 0.018*[#   1]+0.018*[#   2]+0.018*[#   3]+0.018*[#   4]
    |psi|^2 = 0.073
==== e(   7) =    28.14491 eV ==== 
     psi = 0.004*[#   2]+0.004*[#   3]+0.004*[#   4]+0.001*[#   1]
    |psi|^2 = 0.012
==== e(   8) =    30.08435 eV ==== 
     psi = 0.004*[#   2]+0.004*[#   3]+0.004*[#   4]+0.002*[#   1]
    |psi|^2 = 0.014
==== e(   9) =    34.59746 eV ==== 

    |psi|^2 = 0.001
==== e(  10) =    38.84398 eV ==== 

    |psi|^2 = 0.002

 k =   0.0000000000 -0.4419417382  0.6187184335
==== e(   1) =     6.33771 eV ==== 
     psi = 0.331*[#   2]+0.331*[#   3]+0.331*[#   4]
    |psi|^2 = 0.992
==== e(   2) =     6.84449 eV ==== 
     psi = 0.312*[#   2]+0.312*[#   3]+0.312*[#   4]+0.042*[#   1]
    |psi|^2 = 0.977
==== e(   3) =     7.83858 eV ==== 
     psi = 0.691*[#   1]+0.078*[#   2]+0.078*[#   3]+0.078*[#   4]
    |psi|^2 = 0.924
==== e(   4) =    11.48548 eV ==== 
     psi = 0.241*[#   1]+0.229*[#   2]+0.229*[#   3]+0.229*[#   4]
    |psi|^2 = 0.927
==== e(   5) =    19.73922 eV ==== 
     psi = 0.028*[#   2]+0.028*[#   3]+0.028*[#   4]+0.011*[#   1]
    |psi|^2 = 0.094
==== e(   6) =    23.95765 eV ==== 
     psi = 0.010*[#   2]+0.010*[#   3]+0.010*[#   4]+0.007*[#   1]
    |psi|^2 = 0.038
==== e(   7) =    27.12956 eV ==== 
     psi = 0.002*[#   2]+0.002*[#   3]+0.002*[#   4]
    |psi|^2 = 0.006
==== e(   8) =    28.33352 eV ==== 
     psi = 0.008*[#   2]+0.008*[#   3]+0.008*[#   4]+0.006*[#   1]
    |psi|^2 = 0.030
==== e(   9) =    33.93995 eV ==== 

    |psi|^2 = 0.001
==== e(  10) =    37.86166 eV ==== 
     psi = 0.001*[#   2]+0.001*[#   3]+0.001*[#   4]
    |psi|^2 = 0.004

 k =  -0.7071067812  0.1767766953  0.0000000000
==== e(   1) =     5.55477 eV ==== 
     psi = 0.332*[#   2]+0.332*[#   3]+0.332*[#   4]
    |psi|^2 = 0.996
==== e(   2) =     6.91937 eV ==== 
     psi = 0.654*[#   1]+0.083*[#   2]+0.083*[#   3]+0.083*[#   4]
    |psi|^2 = 0.903
==== e(   3) =     9.74020 eV ==== 
     psi = 0.297*[#   2]+0.297*[#   3]+0.297*[#   4]
    |psi|^2 = 0.891
==== e(   4) =    11.28631 eV ==== 
     psi = 0.305*[#   1]+0.220*[#   2]+0.220*[#   3]+0.220*[#   4]
    |psi|^2 = 0.965
==== e(   5) =    18.15086 eV ==== 
     psi = 0.035*[#   2]+0.035*[#   3]+0.035*[#   4]
    |psi|^2 = 0.105
==== e(   6) =    20.25522 eV ==== 
     psi = 0.036*[#   1]+0.025*[#   2]+0.025*[#   3]+0.025*[#   4]
    |psi|^2 = 0.110
==== e(   7) =    30.27738 eV ==== 

    |psi|^2 = 0.002
==== e(   8) =    30.76893 eV ==== 
     psi = 0.005*[#   2]+0.005*[#   3]+0.005*[#   4]+0.002*[#   1]
    |psi|^2 = 0.016
==== e(   9) =    35.08074 eV ==== 

    |psi|^2 = 0.000
==== e(  10) =    40.09323 eV ==== 
     psi = 0.001*[#   1]
    |psi|^2 = 0.001

 k =  -0.1767766953 -0.4419417382  0.7071067812
==== e(   1) =     3.04676 eV ==== 
     psi = 0.279*[#   1]+0.239*[#   2]+0.239*[#   3]+0.239*[#   4]
    |psi|^2 = 0.996
==== e(   2) =     8.82291 eV ==== 
     psi = 0.318*[#   2]+0.318*[#   3]+0.318*[#   4]
    |psi|^2 = 0.953
==== e(   3) =    10.27874 eV ==== 
     psi = 0.275*[#   1]+0.215*[#   2]+0.215*[#   3]+0.215*[#   4]
    |psi|^2 = 0.920
==== e(   4) =    11.88424 eV ==== 
     psi = 0.419*[#   1]+0.158*[#   2]+0.158*[#   3]+0.158*[#   4]
    |psi|^2 = 0.894
==== e(   5) =    21.38949 eV ==== 
     psi = 0.012*[#   2]+0.012*[#   3]+0.012*[#   4]
    |psi|^2 = 0.036
==== e(   6) =    22.91455 eV ==== 
     psi = 0.046*[#   2]+0.046*[#   3]+0.046*[#   4]+0.012*[#   1]
    |psi|^2 = 0.151
==== e(   7) =    24.41339 eV ==== 
     psi = 0.012*[#   1]+0.003*[#   2]+0.003*[#   3]+0.003*[#   4]
    |psi|^2 = 0.020
==== e(   8) =    31.13564 eV ==== 
     psi = 0.002*[#   1]+0.001*[#   2]+0.001*[#   3]+0.001*[#   4]
    |psi|^2 = 0.005
==== e(   9) =    32.52545 eV ==== 
     psi = 0.003*[#   2]+0.003*[#   3]+0.003*[#   4]
    |psi|^2 = 0.009
==== e(  10) =    35.73236 eV ==== 
     psi = 0.003*[#   2]+0.003*[#   3]+0.003*[#   4]
    |psi|^2 = 0.008

 k =  -0.1325825215 -0.3977475644  0.6629126074
==== e(   1) =     4.35512 eV ==== 
     psi = 0.252*[#   2]+0.252*[#   3]+0.252*[#   4]+0.238*[#   1]
    |psi|^2 = 0.993
==== e(   2) =     7.44858 eV ==== 
     psi = 0.284*[#   2]+0.284*[#   3]+0.284*[#   4]+0.123*[#   1]
    |psi|^2 = 0.975
==== e(   3) =     9.97495 eV ==== 
     psi = 0.251*[#   2]+0.251*[#   3]+0.251*[#   4]+0.156*[#   1]
    |psi|^2 = 0.910
==== e(   4) =    11.11574 eV ==== 
     psi = 0.461*[#   1]+0.159*[#   2]+0.159*[#   3]+0.159*[#   4]
    |psi|^2 = 0.938
==== e(   5) =    22.15749 eV ==== 
     psi = 0.019*[#   2]+0.019*[#   3]+0.019*[#   4]+0.002*[#   1]
    |psi|^2 = 0.059
==== e(   6) =    23.28866 eV ==== 
     psi = 0.020*[#   2]+0.020*[#   3]+0.020*[#   4]+0.002*[#   1]
    |psi|^2 = 0.061
==== e(   7) =    24.81532 eV ==== 
     psi = 0.011*[#   1]+0.008*[#   2]+0.008*[#   3]+0.008*[#   4]
    |psi|^2 = 0.034
==== e(   8) =    29.19715 eV ==== 
     psi = 0.004*[#   1]+0.003*[#   2]+0.003*[#   3]+0.003*[#   4]
    |psi|^2 = 0.012
==== e(   9) =    33.21650 eV ==== 
     psi = 0.001*[#   2]+0.001*[#   3]+0.001*[#   4]
    |psi|^2 = 0.004
==== e(  10) =    36.21474 eV ==== 
     psi = 0.002*[#   2]+0.002*[#   3]+0.002*[#   4]
    |psi|^2 = 0.006

 k =  -0.0883883476 -0.3535533906  0.6187184335
==== e(   1) =     5.70528 eV ==== 
     psi = 0.330*[#   2]+0.330*[#   3]+0.330*[#   4]
    |psi|^2 = 0.989
==== e(   2) =     5.98154 eV ==== 
     psi = 0.401*[#   1]+0.194*[#   2]+0.194*[#   3]+0.194*[#   4]
    |psi|^2 = 0.984
==== e(   3) =    10.08145 eV ==== 
     psi = 0.294*[#   2]+0.294*[#   3]+0.294*[#   4]
    |psi|^2 = 0.883
==== e(   4) =    10.74547 eV ==== 
     psi = 0.579*[#   1]+0.132*[#   2]+0.132*[#   3]+0.132*[#   4]
    |psi|^2 = 0.975
==== e(   5) =    22.49216 eV ==== 
     psi = 0.032*[#   2]+0.032*[#   3]+0.032*[#   4]
    |psi|^2 = 0.096
==== e(   6) =    22.96807 eV ==== 
     psi = 0.008*[#   1]+0.002*[#   2]+0.002*[#   3]+0.002*[#   4]
    |psi|^2 = 0.012
==== e(   7) =    26.21776 eV ==== 
     psi = 0.007*[#   2]+0.007*[#   3]+0.007*[#   4]
    |psi|^2 = 0.022
==== e(   8) =    27.59785 eV ==== 
     psi = 0.010*[#   1]+0.004*[#   2]+0.004*[#   3]+0.004*[#   4]
    |psi|^2 = 0.023
==== e(   9) =    33.45293 eV ==== 

    |psi|^2 = 0.003
==== e(  10) =    36.24294 eV ==== 
     psi = 0.002*[#   2]+0.002*[#   3]+0.002*[#   4]
    |psi|^2 = 0.005

 k =  -0.0883883476 -0.4419417382  0.7071067812
==== e(   1) =     4.76753 eV ==== 
     psi = 0.259*[#   2]+0.259*[#   3]+0.259*[#   4]+0.214*[#   1]
    |psi|^2 = 0.991
==== e(   2) =     8.43004 eV ==== 
     psi = 0.319*[#   2]+0.319*[#   3]+0.319*[#   4]
    |psi|^2 = 0.958
==== e(   3) =     9.14481 eV ==== 
     psi = 0.277*[#   2]+0.277*[#   3]+0.277*[#   4]+0.071*[#   1]
    |psi|^2 = 0.902
==== e(   4) =    10.17172 eV ==== 
     psi = 0.690*[#   1]+0.097*[#   2]+0.097*[#   3]+0.097*[#   4]
    |psi|^2 = 0.981
==== e(   5) =    21.01504 eV ==== 
     psi = 0.012*[#   2]+0.012*[#   3]+0.012*[#   4]
    |psi|^2 = 0.037
==== e(   6) =    22.70516 eV ==== 
     psi = 0.025*[#   2]+0.025*[#   3]+0.025*[#   4]+0.015*[#   1]
    |psi|^2 = 0.089
==== e(   7) =    25.82496 eV ==== 
     psi = 0.004*[#   1]+0.004*[#   2]+0.004*[#   3]+0.004*[#   4]
    |psi|^2 = 0.017
==== e(   8) =    29.60427 eV ==== 
     psi = 0.003*[#   1]+0.003*[#   2]+0.003*[#   3]+0.003*[#   4]
    |psi|^2 = 0.011
==== e(   9) =    34.42216 eV ==== 

    |psi|^2 = 0.003
==== e(  10) =    38.36747 eV ==== 
     psi = 0.001*[#   2]+0.001*[#   3]+0.001*[#   4]
    |psi|^2 = 0.003

 k =  -0.0441941738 -0.3977475644  0.6629126074
==== e(   1) =     6.10997 eV ==== 
     psi = 0.294*[#   2]+0.294*[#   3]+0.294*[#   4]+0.104*[#   1]
    |psi|^2 = 0.987
==== e(   2) =     7.17278 eV ==== 
     psi = 0.296*[#   2]+0.296*[#   3]+0.296*[#   4]+0.090*[#   1]
    |psi|^2 = 0.978
==== e(   3) =     8.64298 eV ==== 
     psi = 0.236*[#   2]+0.236*[#   3]+0.236*[#   4]+0.220*[#   1]
    |psi|^2 = 0.929
==== e(   4) =     9.95502 eV ==== 
     psi = 0.566*[#   1]+0.134*[#   2]+0.134*[#   3]+0.134*[#   4]
    |psi|^2 = 0.968
==== e(   5) =    21.93466 eV ==== 
     psi = 0.014*[#   2]+0.014*[#   3]+0.014*[#   4]+0.003*[#   1]
    |psi|^2 = 0.044
==== e(   6) =    24.17026 eV ==== 
     psi = 0.017*[#   2]+0.017*[#   3]+0.017*[#   4]+0.003*[#   1]
    |psi|^2 = 0.053
==== e(   7) =    25.16305 eV ==== 
     psi = 0.004*[#   1]+0.002*[#   2]+0.002*[#   3]+0.002*[#   4]
    |psi|^2 = 0.010
==== e(   8) =    27.55939 eV ==== 
     psi = 0.009*[#   1]+0.004*[#   2]+0.004*[#   3]+0.004*[#   4]
    |psi|^2 = 0.020
==== e(   9) =    34.68353 eV ==== 

    |psi|^2 = 0.001
==== e(  10) =    38.74869 eV ==== 
     psi = 0.001*[#   2]+0.001*[#   3]+0.001*[#   4]
    |psi|^2 = 0.003

 k =   0.0000000000 -0.3535533906  0.6187184335
==== e(   1) =     5.69743 eV ==== 
     psi = 0.274*[#   2]+0.274*[#   3]+0.274*[#   4]+0.165*[#   1]
    |psi|^2 = 0.988
==== e(   2) =     7.25239 eV ==== 
     psi = 0.328*[#   2]+0.328*[#   3]+0.328*[#   4]
    |psi|^2 = 0.983
==== e(   3) =     8.68274 eV ==== 
     psi = 0.357*[#   1]+0.192*[#   2]+0.192*[#   3]+0.192*[#   4]
    |psi|^2 = 0.934
==== e(   4) =    10.37502 eV ==== 
     psi = 0.459*[#   1]+0.164*[#   2]+0.164*[#   3]+0.164*[#   4]
    |psi|^2 = 0.952
==== e(   5) =    22.57447 eV ==== 
     psi = 0.018*[#   2]+0.018*[#   3]+0.018*[#   4]+0.003*[#   1]
    |psi|^2 = 0.058
==== e(   6) =    23.97946 eV ==== 
     psi = 0.005*[#   2]+0.005*[#   3]+0.005*[#   4]
    |psi|^2 = 0.014
==== e(   7) =    25.15487 eV ==== 
     psi = 0.012*[#   2]+0.012*[#   3]+0.012*[#   4]+0.004*[#   1]
    |psi|^2 = 0.041
==== e(   8) =    27.23253 eV ==== 
     psi = 0.011*[#   1]+0.002*[#   2]+0.002*[#   3]+0.002*[#   4]
    |psi|^2 = 0.018
==== e(   9) =    34.22444 eV ==== 

    |psi|^2 = 0.002
==== e(  10) =    38.07330 eV ==== 
     psi = 0.002*[#   2]+0.002*[#   3]+0.002*[#   4]
    |psi|^2 = 0.005

 k =  -0.7071067812  0.2651650429  0.0000000000
==== e(   1) =     6.20716 eV ==== 
     psi = 0.331*[#   2]+0.331*[#   3]+0.331*[#   4]
    |psi|^2 = 0.993
==== e(   2) =     7.56360 eV ==== 
     psi = 0.418*[#   1]+0.170*[#   2]+0.170*[#   3]+0.170*[#   4]
    |psi|^2 = 0.929
==== e(   3) =     8.29913 eV ==== 
     psi = 0.320*[#   2]+0.320*[#   3]+0.320*[#   4]
    |psi|^2 = 0.960
==== e(   4) =     9.93635 eV ==== 
     psi = 0.559*[#   1]+0.138*[#   2]+0.138*[#   3]+0.138*[#   4]
    |psi|^2 = 0.972
==== e(   5) =    20.88933 eV ==== 
     psi = 0.013*[#   2]+0.013*[#   3]+0.013*[#   4]
    |psi|^2 = 0.038
==== e(   6) =    22.61554 eV ==== 
     psi = 0.019*[#   2]+0.019*[#   3]+0.019*[#   4]+0.015*[#   1]
    |psi|^2 = 0.071
==== e(   7) =    27.01903 eV ==== 
     psi = 0.002*[#   2]+0.002*[#   3]+0.002*[#   4]
    |psi|^2 = 0.006
==== e(   8) =    28.31431 eV ==== 
     psi = 0.007*[#   1]+0.005*[#   2]+0.005*[#   3]+0.005*[#   4]
    |psi|^2 = 0.022
==== e(   9) =    35.15861 eV ==== 

    |psi|^2 = 0.000
==== e(  10) =    40.00007 eV ==== 

    |psi|^2 = 0.002

 k =  -0.7071067812  0.3535533906  0.0000000000
==== e(   1) =     7.12163 eV ==== 
     psi = 0.328*[#   2]+0.328*[#   3]+0.328*[#   4]
    |psi|^2 = 0.984
==== e(   2) =     7.12163 eV ==== 
     psi = 0.328*[#   2]+0.328*[#   3]+0.328*[#   4]
    |psi|^2 = 0.984
==== e(   3) =     8.13464 eV ==== 
     psi = 0.310*[#   2]+0.310*[#   3]+0.310*[#   4]
    |psi|^2 = 0.931
==== e(   4) =     9.12266 eV ==== 
     psi = 0.982*[#   1]
    |psi|^2 = 0.982
==== e(   5) =    23.85845 eV ==== 
     psi = 0.005*[#   2]+0.005*[#   3]+0.005*[#   4]
    |psi|^2 = 0.014
==== e(   6) =    23.85845 eV ==== 
     psi = 0.005*[#   2]+0.005*[#   3]+0.005*[#   4]
    |psi|^2 = 0.014
==== e(   7) =    24.40741 eV ==== 
     psi = 0.022*[#   2]+0.022*[#   3]+0.022*[#   4]
    |psi|^2 = 0.065
==== e(   8) =    26.46215 eV ==== 
     psi = 0.017*[#   1]
    |psi|^2 = 0.017
==== e(   9) =    35.19081 eV ==== 

    |psi|^2 = 0.000
==== e(  10) =    40.01861 eV ==== 
     psi = 0.001*[#   2]+0.001*[#   3]+0.001*[#   4]
    |psi|^2 = 0.003

Lowdin Charges: 

     Atom #   1: total charge =   2.9566, s =  0.9353, 
     Atom #   1: total charge =   2.9566, p =  2.0212, pz=  0.6737, px=  0.6737, py=  0.6737, 
     Spilling Parameter:   0.0145

     PROJWFC      :      3.93s CPU      4.22s WALL


   This run was terminated on:   1:28:54  28Jun2022            

=------------------------------------------------------------------------------=
   JOB DONE.
=------------------------------------------------------------------------------=
[macloud1:896955] 23 more processes have sent help message help-common-ofi.txt / package_rank failed
[macloud1:896955] Set MCA parameter "orte_base_help_aggregate" to 0 to see all help / error messages
[macloud1:896955] 23 more processes have sent help message help-mpi-btl-openib.txt / error in device init
