
     Program Q2R v.7.4.1 starts on 13Mar2026 at  2:39:44 

     This program is part of the open-source Quantum ESPRESSO suite
     for quantum simulation of materials; please cite
         "P. Giannozzi et al., J. Phys.:Condens. Matter 21 395502 (2009);
         "P. Giannozzi et al., J. Phys.:Condens. Matter 29 465901 (2017);
         "P. Giannozzi et al., J. Chem. Phys. 152 154105 (2020);
          URL http://www.quantum-espresso.org", 
     in publications or presentations arising from this work. More details at
     http://www.quantum-espresso.org/quote

     Parallel version (MPI & OpenMP), running on       1 processor cores
     Number of MPI processes:                 1
     Threads/MPI process:                     1

     MPI processes distributed on     1 nodes
     228967 MiB available memory on the printing compute node when the environment starts
 

  reading grid info from file matdyn0    

  reading force constants from file matdyn1
  nqs=            8
 q=   0.08838835  0.08838835  0.08838835
 q=   0.08838835 -0.08838835  0.08838835
 q=  -0.08838835  0.08838835  0.08838835
 q=  -0.08838835 -0.08838835 -0.08838835
 q=   0.08838835  0.08838835 -0.08838835
 q=  -0.08838835 -0.08838835  0.08838835
 q=  -0.08838835  0.08838835 -0.08838835
 q=   0.08838835 -0.08838835 -0.08838835
  reading force constants from file matdyn2
  nqs=           24
 q=   0.26516504  0.26516504 -0.08838835
 q=  -0.08838835  0.26516504  0.26516504
 q=   0.26516504 -0.08838835  0.26516504
 q=   0.26516504 -0.26516504 -0.08838835
 q=  -0.26516504  0.26516504 -0.08838835
 q=  -0.08838835 -0.26516504  0.26516504
 q=   0.08838835 -0.26516504 -0.26516504
 q=  -0.08838835  0.26516504 -0.26516504
 q=   0.08838835  0.26516504  0.26516504
 q=  -0.26516504 -0.08838835  0.26516504
 q=  -0.26516504  0.08838835 -0.26516504
 q=   0.26516504 -0.08838835 -0.26516504
 q=   0.26516504  0.08838835  0.26516504
 q=  -0.26516504 -0.26516504 -0.08838835
 q=  -0.26516504 -0.08838835 -0.26516504
 q=   0.26516504  0.08838835 -0.26516504
 q=  -0.26516504  0.08838835  0.26516504
 q=  -0.26516504  0.26516504  0.08838835
 q=  -0.08838835 -0.26516504 -0.26516504
 q=   0.08838835 -0.26516504  0.26516504
 q=   0.08838835  0.26516504 -0.26516504
 q=  -0.26516504 -0.26516504  0.08838835
 q=   0.26516504  0.26516504  0.08838835
 q=   0.26516504 -0.26516504  0.08838835
  reading force constants from file matdyn3
  nqs=           24
 q=  -0.26516504 -0.26516504  0.44194174
 q=   0.44194174 -0.26516504 -0.26516504
 q=  -0.26516504  0.44194174 -0.26516504
 q=  -0.26516504  0.26516504  0.44194174
 q=   0.26516504 -0.26516504  0.44194174
 q=   0.44194174  0.26516504 -0.26516504
 q=  -0.44194174  0.26516504  0.26516504
 q=   0.44194174 -0.26516504  0.26516504
 q=  -0.44194174 -0.26516504 -0.26516504
 q=   0.26516504  0.44194174 -0.26516504
 q=   0.26516504 -0.44194174  0.26516504
 q=  -0.26516504  0.44194174  0.26516504
 q=  -0.26516504 -0.44194174 -0.26516504
 q=   0.26516504  0.26516504  0.44194174
 q=   0.26516504  0.44194174  0.26516504
 q=  -0.26516504 -0.44194174  0.26516504
 q=   0.26516504 -0.44194174 -0.26516504
 q=   0.26516504 -0.26516504 -0.44194174
 q=   0.44194174  0.26516504  0.26516504
 q=  -0.44194174  0.26516504 -0.26516504
 q=  -0.44194174 -0.26516504  0.26516504
 q=   0.26516504  0.26516504 -0.44194174
 q=  -0.26516504 -0.26516504 -0.44194174
 q=  -0.26516504  0.26516504 -0.44194174
  reading force constants from file matdyn4
  nqs=           24
 q=  -0.08838835 -0.08838835  0.26516504
 q=   0.26516504 -0.08838835 -0.08838835
 q=  -0.08838835  0.26516504 -0.08838835
 q=  -0.08838835  0.08838835  0.26516504
 q=   0.08838835 -0.08838835  0.26516504
 q=   0.26516504  0.08838835 -0.08838835
 q=  -0.26516504  0.08838835  0.08838835
 q=   0.26516504 -0.08838835  0.08838835
 q=  -0.26516504 -0.08838835 -0.08838835
 q=   0.08838835  0.26516504 -0.08838835
 q=   0.08838835 -0.26516504  0.08838835
 q=  -0.08838835  0.26516504  0.08838835
 q=  -0.08838835 -0.26516504 -0.08838835
 q=   0.08838835  0.08838835  0.26516504
 q=   0.08838835  0.26516504  0.08838835
 q=  -0.08838835 -0.26516504  0.08838835
 q=   0.08838835 -0.26516504 -0.08838835
 q=   0.08838835 -0.08838835 -0.26516504
 q=   0.26516504  0.08838835  0.08838835
 q=  -0.26516504  0.08838835 -0.08838835
 q=  -0.26516504 -0.08838835  0.08838835
 q=   0.08838835  0.08838835 -0.26516504
 q=  -0.08838835 -0.08838835 -0.26516504
 q=  -0.08838835  0.08838835 -0.26516504
  reading force constants from file matdyn5
  nqs=           24
 q=   0.44194174  0.08838835  0.08838835
 q=   0.08838835  0.44194174  0.08838835
 q=   0.08838835  0.08838835  0.44194174
 q=   0.08838835 -0.44194174  0.08838835
 q=  -0.08838835  0.44194174  0.08838835
 q=   0.08838835 -0.08838835  0.44194174
 q=  -0.08838835 -0.08838835 -0.44194174
 q=   0.08838835  0.08838835 -0.44194174
 q=  -0.08838835  0.08838835  0.44194174
 q=  -0.44194174  0.08838835  0.08838835
 q=  -0.44194174 -0.08838835 -0.08838835
 q=   0.44194174  0.08838835 -0.08838835
 q=   0.44194174 -0.08838835  0.08838835
 q=  -0.44194174 -0.08838835  0.08838835
 q=  -0.08838835  0.08838835 -0.44194174
 q=   0.08838835 -0.08838835 -0.44194174
 q=  -0.08838835 -0.08838835  0.44194174
 q=  -0.44194174  0.08838835 -0.08838835
 q=   0.08838835 -0.44194174 -0.08838835
 q=  -0.08838835 -0.44194174  0.08838835
 q=  -0.08838835  0.44194174 -0.08838835
 q=   0.44194174 -0.08838835 -0.08838835
 q=   0.08838835  0.44194174 -0.08838835
 q=  -0.08838835 -0.44194174 -0.08838835
  reading force constants from file matdyn6
  nqs=           48
 q=  -0.08838835 -0.44194174  0.61871843
 q=  -0.08838835  0.61871843 -0.44194174
 q=   0.61871843 -0.08838835 -0.44194174
 q=  -0.44194174  0.61871843 -0.08838835
 q=   0.61871843 -0.44194174 -0.08838835
 q=  -0.44194174 -0.08838835  0.61871843
 q=  -0.44194174  0.08838835  0.61871843
 q=   0.44194174 -0.08838835  0.61871843
 q=   0.61871843  0.44194174 -0.08838835
 q=  -0.61871843  0.44194174  0.08838835
 q=   0.61871843 -0.44194174  0.08838835
 q=  -0.61871843 -0.44194174 -0.08838835
 q=   0.08838835  0.61871843 -0.44194174
 q=   0.08838835 -0.61871843  0.44194174
 q=  -0.08838835  0.61871843  0.44194174
 q=  -0.08838835 -0.61871843 -0.44194174
 q=   0.08838835  0.44194174  0.61871843
 q=   0.44194174  0.61871843  0.08838835
 q=  -0.44194174 -0.61871843  0.08838835
 q=   0.44194174 -0.61871843 -0.08838835
 q=   0.08838835 -0.44194174 -0.61871843
 q=   0.61871843  0.08838835  0.44194174
 q=  -0.61871843  0.08838835 -0.44194174
 q=  -0.61871843 -0.08838835  0.44194174
 q=   0.08838835  0.44194174 -0.61871843
 q=  -0.08838835 -0.44194174 -0.61871843
 q=  -0.08838835  0.44194174  0.61871843
 q=   0.08838835 -0.44194174  0.61871843
 q=   0.44194174  0.08838835  0.61871843
 q=  -0.08838835  0.44194174 -0.61871843
 q=   0.44194174 -0.08838835 -0.61871843
 q=  -0.44194174  0.08838835 -0.61871843
 q=  -0.61871843 -0.44194174  0.08838835
 q=  -0.44194174 -0.08838835 -0.61871843
 q=  -0.61871843  0.44194174 -0.08838835
 q=   0.61871843  0.44194174  0.08838835
 q=  -0.08838835 -0.61871843  0.44194174
 q=   0.44194174  0.08838835 -0.61871843
 q=   0.08838835 -0.61871843 -0.44194174
 q=   0.08838835  0.61871843  0.44194174
 q=   0.44194174 -0.61871843  0.08838835
 q=  -0.44194174 -0.61871843 -0.08838835
 q=   0.44194174  0.61871843 -0.08838835
 q=  -0.44194174  0.61871843  0.08838835
 q=  -0.61871843  0.08838835  0.44194174
 q=  -0.61871843 -0.08838835 -0.44194174
 q=   0.61871843 -0.08838835  0.44194174
 q=   0.61871843  0.08838835 -0.44194174
  reading force constants from file matdyn7
  nqs=           48
 q=   0.08838835 -0.26516504  0.44194174
 q=   0.08838835  0.44194174 -0.26516504
 q=   0.44194174  0.08838835 -0.26516504
 q=  -0.26516504  0.44194174  0.08838835
 q=   0.44194174 -0.26516504  0.08838835
 q=  -0.26516504  0.08838835  0.44194174
 q=  -0.26516504 -0.08838835  0.44194174
 q=   0.26516504  0.08838835  0.44194174
 q=   0.44194174  0.26516504  0.08838835
 q=  -0.44194174  0.26516504 -0.08838835
 q=   0.44194174 -0.26516504 -0.08838835
 q=  -0.44194174 -0.26516504  0.08838835
 q=  -0.08838835  0.44194174 -0.26516504
 q=  -0.08838835 -0.44194174  0.26516504
 q=   0.08838835  0.44194174  0.26516504
 q=   0.08838835 -0.44194174 -0.26516504
 q=  -0.08838835  0.26516504  0.44194174
 q=   0.26516504  0.44194174 -0.08838835
 q=  -0.26516504 -0.44194174 -0.08838835
 q=   0.26516504 -0.44194174  0.08838835
 q=  -0.08838835 -0.26516504 -0.44194174
 q=   0.44194174 -0.08838835  0.26516504
 q=  -0.44194174 -0.08838835 -0.26516504
 q=  -0.44194174  0.08838835  0.26516504
 q=  -0.08838835  0.26516504 -0.44194174
 q=   0.08838835 -0.26516504 -0.44194174
 q=   0.08838835  0.26516504  0.44194174
 q=  -0.08838835 -0.26516504  0.44194174
 q=   0.26516504 -0.08838835  0.44194174
 q=   0.08838835  0.26516504 -0.44194174
 q=   0.26516504  0.08838835 -0.44194174
 q=  -0.26516504 -0.08838835 -0.44194174
 q=  -0.44194174 -0.26516504 -0.08838835
 q=  -0.26516504  0.08838835 -0.44194174
 q=  -0.44194174  0.26516504  0.08838835
 q=   0.44194174  0.26516504 -0.08838835
 q=   0.08838835 -0.44194174  0.26516504
 q=   0.26516504 -0.08838835 -0.44194174
 q=  -0.08838835 -0.44194174 -0.26516504
 q=  -0.08838835  0.44194174  0.26516504
 q=   0.26516504 -0.44194174 -0.08838835
 q=  -0.26516504 -0.44194174  0.08838835
 q=   0.26516504  0.44194174  0.08838835
 q=  -0.26516504  0.44194174 -0.08838835
 q=  -0.44194174 -0.08838835  0.26516504
 q=  -0.44194174  0.08838835 -0.26516504
 q=   0.44194174  0.08838835  0.26516504
 q=   0.44194174 -0.08838835 -0.26516504
  reading force constants from file matdyn8
  nqs=           24
 q=  -0.61871843  0.08838835  0.08838835
 q=   0.08838835 -0.61871843  0.08838835
 q=   0.08838835  0.08838835 -0.61871843
 q=   0.08838835  0.61871843  0.08838835
 q=  -0.08838835 -0.61871843  0.08838835
 q=   0.08838835 -0.08838835 -0.61871843
 q=  -0.08838835 -0.08838835  0.61871843
 q=   0.08838835  0.08838835  0.61871843
 q=  -0.08838835  0.08838835 -0.61871843
 q=   0.61871843  0.08838835  0.08838835
 q=   0.61871843 -0.08838835 -0.08838835
 q=  -0.61871843  0.08838835 -0.08838835
 q=  -0.61871843 -0.08838835  0.08838835
 q=   0.61871843 -0.08838835  0.08838835
 q=  -0.08838835  0.08838835  0.61871843
 q=   0.08838835 -0.08838835  0.61871843
 q=  -0.08838835 -0.08838835 -0.61871843
 q=   0.61871843  0.08838835 -0.08838835
 q=   0.08838835  0.61871843 -0.08838835
 q=  -0.08838835  0.61871843  0.08838835
 q=  -0.08838835 -0.61871843 -0.08838835
 q=  -0.61871843 -0.08838835 -0.08838835
 q=   0.08838835 -0.61871843 -0.08838835
 q=  -0.08838835  0.61871843 -0.08838835
  reading force constants from file matdyn9
  nqs=            8
 q=   0.26516504  0.26516504  0.26516504
 q=   0.26516504 -0.26516504  0.26516504
 q=  -0.26516504  0.26516504  0.26516504
 q=  -0.26516504 -0.26516504 -0.26516504
 q=   0.26516504  0.26516504 -0.26516504
 q=  -0.26516504 -0.26516504  0.26516504
 q=  -0.26516504  0.26516504 -0.26516504
 q=   0.26516504 -0.26516504 -0.26516504
  reading force constants from file matdyn10
  nqs=           24
 q=  -0.26516504 -0.26516504  0.79549513
 q=   0.79549513 -0.26516504 -0.26516504
 q=  -0.26516504  0.79549513 -0.26516504
 q=  -0.26516504  0.26516504  0.79549513
 q=   0.26516504 -0.26516504  0.79549513
 q=   0.79549513  0.26516504 -0.26516504
 q=  -0.79549513  0.26516504  0.26516504
 q=   0.79549513 -0.26516504  0.26516504
 q=  -0.79549513 -0.26516504 -0.26516504
 q=   0.26516504  0.79549513 -0.26516504
 q=   0.26516504 -0.79549513  0.26516504
 q=  -0.26516504  0.79549513  0.26516504
 q=  -0.26516504 -0.79549513 -0.26516504
 q=   0.26516504  0.26516504  0.79549513
 q=   0.26516504  0.79549513  0.26516504
 q=  -0.26516504 -0.79549513  0.26516504
 q=   0.26516504 -0.79549513 -0.26516504
 q=   0.26516504 -0.26516504 -0.79549513
 q=   0.79549513  0.26516504  0.26516504
 q=  -0.79549513  0.26516504 -0.26516504
 q=  -0.79549513 -0.26516504  0.26516504
 q=   0.26516504  0.26516504 -0.79549513
 q=  -0.26516504 -0.26516504 -0.79549513
 q=  -0.26516504  0.26516504 -0.79549513

      q-space grid ok, #points =   64

      fft-check success (sum of imaginary terms < 10^-12)
 
   Preparing gamma for a2F 
 
 
 Broadening =      0.000
      q-space grid ok, #points =   64

      fft-check success (sum of imaginary terms < 10^-12)
 
 Broadening =      0.000
      q-space grid ok, #points =   64

      fft-check success (sum of imaginary terms < 10^-12)
 
 Broadening =      0.000
      q-space grid ok, #points =   64

      fft-check success (sum of imaginary terms < 10^-12)
 
 Broadening =      0.000
      q-space grid ok, #points =   64

      fft-check success (sum of imaginary terms < 10^-12)
 
 Broadening =      0.000
      q-space grid ok, #points =   64

      fft-check success (sum of imaginary terms < 10^-12)
 
 Broadening =      0.000
      q-space grid ok, #points =   64

      fft-check success (sum of imaginary terms < 10^-12)
 
 Broadening =      0.000
      q-space grid ok, #points =   64

      fft-check success (sum of imaginary terms < 10^-12)
 
 Broadening =      0.000
      q-space grid ok, #points =   64

      fft-check success (sum of imaginary terms < 10^-12)
 
 Broadening =      0.000
      q-space grid ok, #points =   64

      fft-check success (sum of imaginary terms < 10^-12)
 
 Broadening =      0.000
      q-space grid ok, #points =   64

      fft-check success (sum of imaginary terms < 10^-12)
 
     Q2R          :      0.15s CPU      0.47s WALL

 
   This run was terminated on:   2:39:45  13Mar2026            

=------------------------------------------------------------------------------=
   JOB DONE.
=------------------------------------------------------------------------------=
