
     Program MATDYN v.6.7GPU starts on 29Nov2023 at 21: 0:48 

     This program is part of the open-source Quantum ESPRESSO suite
     for quantum simulation of materials; please cite
         "P. Giannozzi et al., J. Phys.:Condens. Matter 21 395502 (2009);
         "P. Giannozzi et al., J. Phys.:Condens. Matter 29 465901 (2017);
         "P. Giannozzi et al., J. Chem. Phys. 152 154105 (2020);
          URL http://www.quantum-espresso.org", 
     in publications or presentations arising from this work. More details at
     http://www.quantum-espresso.org/quote

     Parallel version (MPI & OpenMP), running on       1 processor cores
     Number of MPI processes:                 1
     Threads/MPI process:                     1

     MPI processes distributed on     1 nodes
 mass for atomic type   1 not given; uses mass from file ifc.dat                                                                                                                                                                                                                                                         
Norm of the difference between old and new effective charges:    0.00000000000000000000
Norm of the difference between old and new force-constants:   0.00068137021040701347
     Message from routine matdyn:
     Z* not found in file ifc.dat, TO-LO splitting at q=0 will be absent!
     Message from routine matdyn:
     Z* not found in file ifc.dat, TO-LO splitting at q=0 will be absent!
 
  Gamma lines for all modes [Rydberg] 
 
Norm of the difference between old and new effective charges:    0.00000000000000000000
Norm of the difference between old and new force-constants:   0.00445717074314676016
 Broadening   0.0000
       1
 0.000000000 0.000000000 0.000000000
       2
 0.000000001-0.000000001 0.000000001
       3
 0.000000004-0.000000004 0.000000004
       4
 0.000000009-0.000000009 0.000000009
       5
 0.000000016-0.000000015 0.000000016
       6
 0.000000025-0.000000021 0.000000025
       7
 0.000000036-0.000000028 0.000000037
       8
 0.000000048-0.000000034 0.000000052
       9
 0.000000063-0.000000039 0.000000071
      10
 0.000000078-0.000000042 0.000000093
      11
 0.000000096-0.000000041 0.000000119
      12
 0.000000114-0.000000038 0.000000150
      13
 0.000000134-0.000000030 0.000000185
      14
 0.000000155-0.000000017 0.000000224
      15
 0.000000178 0.000000000 0.000000269
      16
 0.000000201 0.000000023 0.000000318
      17
 0.000000226 0.000000051 0.000000371
      18
 0.000000251 0.000000084 0.000000428
      19
 0.000000278 0.000000123 0.000000489
      20
 0.000000306 0.000000167 0.000000552
      21
 0.000000334 0.000000216 0.000000618
      22
 0.000000363 0.000000269 0.000000686
      23
 0.000000393 0.000000325 0.000000755
      24
 0.000000422 0.000000385 0.000000824
      25
 0.000000452 0.000000446 0.000000893
      26
 0.000000480 0.000000509 0.000000961
      27
 0.000000508 0.000000571 0.000001029
      28
 0.000000534 0.000000632 0.000001094
      29
 0.000000558 0.000000691 0.000001158
      30
 0.000000581 0.000000747 0.000001220
      31
 0.000000601 0.000000797 0.000001278
      32
 0.000000618 0.000000842 0.000001334
      33
 0.000000634 0.000000880 0.000001387
      34
 0.000000912 0.000000647 0.000001437
      35
 0.000000935 0.000000657 0.000001483
      36
 0.000000951 0.000000666 0.000001525
      37
 0.000000959 0.000000673 0.000001564
      38
 0.000000960 0.000000679 0.000001599
      39
 0.000000955 0.000000683 0.000001630
      40
 0.000000944 0.000000686 0.000001658
      41
 0.000000928 0.000000688 0.000001682
      42
 0.000000910 0.000000690 0.000001703
      43
 0.000000890 0.000000691 0.000001720
      44
 0.000000871 0.000000692 0.000001735
      45
 0.000000852 0.000000693 0.000001747
      46
 0.000000837 0.000000693 0.000001755
      47
 0.000000825 0.000000693 0.000001762
      48
 0.000000817 0.000000694 0.000001765
      49
 0.000000814 0.000000694 0.000001767
      50
 0.000000818 0.000000697 0.000001763
      51
 0.000000829 0.000000705 0.000001753
      52
 0.000000847 0.000000719 0.000001735
      53
 0.000000869 0.000000739 0.000001712
      54
 0.000000894 0.000000764 0.000001683
      55
 0.000000920 0.000000795 0.000001650
      56
 0.000000944 0.000000829 0.000001612
      57
 0.000000965 0.000000868 0.000001571
      58
 0.000000980 0.000000909 0.000001528
      59
 0.000000987 0.000000953 0.000001483
      60
 0.000000985 0.000000996 0.000001436
      61
 0.000000974 0.000001039 0.000001389
      62
 0.000000953 0.000001080 0.000001341
      63
 0.000000923 0.000001117 0.000001292
      64
 0.000000885 0.000001150 0.000001241
      65
 0.000000840 0.000001178 0.000001189
      66
 0.000000840 0.000001178 0.000001189
      67
 0.000000794 0.000001202 0.000001135
      68
 0.000000745 0.000001226 0.000001073
      69
 0.000000696 0.000001262 0.000000993
      70
 0.000000649 0.000001334 0.000000870
      71
 0.000000604 0.000001274 0.000000874
      72
 0.000000564 0.000001100 0.000000989
      73
 0.000000529 0.000001003 0.000001023
      74
 0.000000501 0.000000934 0.000001032
      75
 0.000000479 0.000000874 0.000001034
      76
 0.000000465 0.000000820 0.000001036
      77
 0.000000456 0.000000769 0.000001043
      78
 0.000000453 0.000000721 0.000001057
      79
 0.000000454 0.000000677 0.000001079
      80
 0.000000459 0.000000635 0.000001111
      81
 0.000000465 0.000000597 0.000001153
      82
 0.000000473 0.000000562 0.000001205
      83
 0.000000480 0.000000531 0.000001263
      84
 0.000000486 0.000000503 0.000001328
      85
 0.000000489 0.000000479 0.000001395
      86
 0.000000490 0.000000457 0.000001461
      87
 0.000000487 0.000000438 0.000001524
      88
 0.000000481 0.000000422 0.000001578
      89
 0.000000472 0.000000408 0.000001621
      90
 0.000000460 0.000000395 0.000001649
      91
 0.000000445 0.000000385 0.000001658
      92
 0.000000429 0.000000375 0.000001647
      93
 0.000000411 0.000000366 0.000001615
      94
 0.000000392 0.000000358 0.000001560
      95
 0.000000374 0.000000350 0.000001485
      96
 0.000000355 0.000000341 0.000001390
      97
 0.000000337 0.000000330 0.000001278
      98
 0.000000319 0.000000319 0.000001154
      99
 0.000000301 0.000000305 0.000001021
     100
 0.000000284 0.000000289 0.000000884
     101
 0.000000267 0.000000271 0.000000747
     102
 0.000000250 0.000000252 0.000000614
     103
 0.000000232 0.000000231 0.000000489
     104
 0.000000213 0.000000208 0.000000376
     105
 0.000000194 0.000000185 0.000000276
     106
 0.000000174 0.000000161 0.000000192
     107
 0.000000152 0.000000137 0.000000123
     108
 0.000000131 0.000000114 0.000000071
     109
 0.000000109 0.000000093 0.000000033
     110
 0.000000088 0.000000072 0.000000008
     111
 0.000000067 0.000000054-0.000000006
     112
 0.000000049 0.000000038-0.000000011
     113
 0.000000032 0.000000025-0.000000011
     114
 0.000000019 0.000000014-0.000000008
     115
 0.000000008 0.000000006-0.000000004
     116
 0.000000002 0.000000002-0.000000001
     117
 0.000000000 0.000000000 0.000000000
     118
 0.000000003 0.000000003-0.000000002
     119
 0.000000012 0.000000012-0.000000008
     120
 0.000000027 0.000000027-0.000000016
     121
 0.000000046 0.000000046-0.000000024
     122
 0.000000070 0.000000070-0.000000030
     123
 0.000000096 0.000000096-0.000000029
     124
 0.000000124 0.000000124-0.000000019
     125
 0.000000152 0.000000152 0.000000003
     126
 0.000000180 0.000000180 0.000000040
     127
 0.000000205 0.000000205 0.000000093
     128
 0.000000228 0.000000228 0.000000164
     129
 0.000000247 0.000000247 0.000000251
     130
 0.000000262 0.000000262 0.000000352
     131
 0.000000273 0.000000273 0.000000467
     132
 0.000000280 0.000000280 0.000000590
     133
 0.000000282 0.000000282 0.000000717
     134
 0.000000282 0.000000282 0.000000844
     135
 0.000000279 0.000000279 0.000000966
     136
 0.000000274 0.000000274 0.000001078
     137
 0.000000269 0.000000269 0.000001176
     138
 0.000000265 0.000000265 0.000001257
     139
 0.000000261 0.000000261 0.000001318
     140
 0.000000260 0.000000260 0.000001358
     141
 0.000000263 0.000000263 0.000001378
     142
 0.000000269 0.000000269 0.000001377
     143
 0.000000279 0.000000279 0.000001357
     144
 0.000000294 0.000000294 0.000001322
     145
 0.000000312 0.000000312 0.000001274
     146
 0.000000335 0.000000335 0.000001217
     147
 0.000000362 0.000000362 0.000001155
     148
 0.000000391 0.000000391 0.000001092
     149
 0.000000423 0.000000423 0.000001029
     150
 0.000000456 0.000000456 0.000000970
     151
 0.000000489 0.000000489 0.000000916
     152
 0.000000521 0.000000521 0.000000869
     153
 0.000000551 0.000000551 0.000000829
     154
 0.000000578 0.000000578 0.000000797
     155
 0.000000602 0.000000602 0.000000772
     156
 0.000000622 0.000000622 0.000000753
     157
 0.000000636 0.000000636 0.000000741
     158
 0.000000645 0.000000645 0.000000733
     159
 0.000000648 0.000000648 0.000000731
     160
 0.000000650 0.000000650 0.000000731
     161
 0.000000658 0.000000656 0.000000730
     162
 0.000000670 0.000000667 0.000000729
     163
 0.000000684 0.000000682 0.000000728
     164
 0.000000700 0.000000701 0.000000728
     165
 0.000000716 0.000000723 0.000000730
     166
 0.000000730 0.000000749 0.000000733
     167
 0.000000740 0.000000778 0.000000739
     168
 0.000000744 0.000000810 0.000000748
     169
 0.000000741 0.000000844 0.000000760
     170
 0.000000730 0.000000881 0.000000776
     171
 0.000000711 0.000000920 0.000000796
     172
 0.000000685 0.000000961 0.000000819
     173
 0.000000652 0.000001004 0.000000845
     174
 0.000000613 0.000001049 0.000000872
     175
 0.000000572 0.000001096 0.000000902
     176
 0.000000528 0.000001143 0.000000931
     177
 0.000000486 0.000001192 0.000000960
     178
 0.000000448 0.000001243 0.000000987
     179
 0.000000415 0.000001294 0.000001011
     180
 0.000000389 0.000001345 0.000001032
     181
 0.000000373 0.000001396 0.000001049
     182
 0.000000367 0.000001447 0.000001062
     183
 0.000000372 0.000001496 0.000001070
     184
 0.000000386 0.000001544 0.000001074
     185
 0.000000409 0.000001589 0.000001074
     186
 0.000000440 0.000001631 0.000001073
     187
 0.000000475 0.000001668 0.000001072
     188
 0.000000509 0.000001700 0.000001073
     189
 0.000000539 0.000001726 0.000001082
     190
 0.000000558 0.000001745 0.000001102
     191
 0.000000562 0.000001756 0.000001138
     192
 0.000000550 0.000001759 0.000001188
     193
 0.000000531 0.000001753 0.000001243
     194
 0.000000533 0.000001721 0.000001273
     195
 0.000000541 0.000001665 0.000001317
     196
 0.000000558 0.000001613 0.000001348
     197
 0.000000587 0.000001559 0.000001367
     198
 0.000000630 0.000001495 0.000001379
     199
 0.000000682 0.000001422 0.000001390
     200
 0.000000738 0.000001344 0.000001401
     201
 0.000000790 0.000001265 0.000001414
     202
 0.000000840 0.000001184 0.000001430
     203
 0.000000916 0.000001073 0.000001450
     204
 0.000001253 0.000000695 0.000001473
     205
 0.000001191 0.000000713 0.000001500
     206
 0.000001106 0.000000751 0.000001530
     207
 0.000001049 0.000000758 0.000001562
     208
 0.000001003 0.000000754 0.000001595
     209
 0.000000962 0.000000746 0.000001628
     210
 0.000000926 0.000000735 0.000001660
     211
 0.000000893 0.000000724 0.000001690
     212
 0.000000866 0.000000714 0.000001716
     213
 0.000000844 0.000000706 0.000001737
     214
 0.000000828 0.000000699 0.000001753
     215
 0.000000818 0.000000695 0.000001763
     216
 0.000000814 0.000000694 0.000001767
Norm of the difference between old and new effective charges:    0.00000000000000000000
Norm of the difference between old and new force-constants:   0.00445717074314676016
 Broadening   0.0000
       1
 0.000000000 0.000000000 0.000000000
       2
 0.000000001-0.000000001 0.000000001
       3
 0.000000004-0.000000004 0.000000004
       4
 0.000000009-0.000000009 0.000000009
       5
 0.000000016-0.000000015 0.000000016
       6
 0.000000025-0.000000021 0.000000025
       7
 0.000000036-0.000000028 0.000000037
       8
 0.000000048-0.000000034 0.000000052
       9
 0.000000063-0.000000039 0.000000071
      10
 0.000000078-0.000000042 0.000000093
      11
 0.000000096-0.000000041 0.000000119
      12
 0.000000114-0.000000038 0.000000150
      13
 0.000000134-0.000000030 0.000000185
      14
 0.000000155-0.000000017 0.000000224
      15
 0.000000178 0.000000000 0.000000269
      16
 0.000000201 0.000000023 0.000000318
      17
 0.000000226 0.000000051 0.000000371
      18
 0.000000251 0.000000084 0.000000428
      19
 0.000000278 0.000000123 0.000000489
      20
 0.000000306 0.000000167 0.000000552
      21
 0.000000334 0.000000216 0.000000618
      22
 0.000000363 0.000000269 0.000000686
      23
 0.000000393 0.000000325 0.000000755
      24
 0.000000422 0.000000385 0.000000824
      25
 0.000000452 0.000000446 0.000000893
      26
 0.000000480 0.000000509 0.000000961
      27
 0.000000508 0.000000571 0.000001029
      28
 0.000000534 0.000000632 0.000001094
      29
 0.000000558 0.000000691 0.000001158
      30
 0.000000581 0.000000747 0.000001220
      31
 0.000000601 0.000000797 0.000001278
      32
 0.000000618 0.000000842 0.000001334
      33
 0.000000634 0.000000880 0.000001387
      34
 0.000000912 0.000000647 0.000001437
      35
 0.000000935 0.000000657 0.000001483
      36
 0.000000951 0.000000666 0.000001525
      37
 0.000000959 0.000000673 0.000001564
      38
 0.000000960 0.000000679 0.000001599
      39
 0.000000955 0.000000683 0.000001630
      40
 0.000000944 0.000000686 0.000001658
      41
 0.000000928 0.000000688 0.000001682
      42
 0.000000910 0.000000690 0.000001703
      43
 0.000000890 0.000000691 0.000001720
      44
 0.000000871 0.000000692 0.000001735
      45
 0.000000852 0.000000693 0.000001747
      46
 0.000000837 0.000000693 0.000001755
      47
 0.000000825 0.000000693 0.000001762
      48
 0.000000817 0.000000694 0.000001765
      49
 0.000000814 0.000000694 0.000001767
      50
 0.000000818 0.000000697 0.000001763
      51
 0.000000829 0.000000705 0.000001753
      52
 0.000000847 0.000000719 0.000001735
      53
 0.000000869 0.000000739 0.000001712
      54
 0.000000894 0.000000764 0.000001683
      55
 0.000000920 0.000000795 0.000001650
      56
 0.000000944 0.000000829 0.000001612
      57
 0.000000965 0.000000868 0.000001571
      58
 0.000000980 0.000000909 0.000001528
      59
 0.000000987 0.000000953 0.000001483
      60
 0.000000985 0.000000996 0.000001436
      61
 0.000000974 0.000001039 0.000001389
      62
 0.000000953 0.000001080 0.000001341
      63
 0.000000923 0.000001117 0.000001292
      64
 0.000000885 0.000001150 0.000001241
      65
 0.000000840 0.000001178 0.000001189
      66
 0.000000840 0.000001178 0.000001189
      67
 0.000000794 0.000001202 0.000001135
      68
 0.000000745 0.000001226 0.000001073
      69
 0.000000696 0.000001262 0.000000993
      70
 0.000000649 0.000001334 0.000000870
      71
 0.000000604 0.000001274 0.000000874
      72
 0.000000564 0.000001100 0.000000989
      73
 0.000000529 0.000001003 0.000001023
      74
 0.000000501 0.000000934 0.000001032
      75
 0.000000479 0.000000874 0.000001034
      76
 0.000000465 0.000000820 0.000001036
      77
 0.000000456 0.000000769 0.000001043
      78
 0.000000453 0.000000721 0.000001057
      79
 0.000000454 0.000000677 0.000001079
      80
 0.000000459 0.000000635 0.000001111
      81
 0.000000465 0.000000597 0.000001153
      82
 0.000000473 0.000000562 0.000001205
      83
 0.000000480 0.000000531 0.000001263
      84
 0.000000486 0.000000503 0.000001328
      85
 0.000000489 0.000000479 0.000001395
      86
 0.000000490 0.000000457 0.000001461
      87
 0.000000487 0.000000438 0.000001524
      88
 0.000000481 0.000000422 0.000001578
      89
 0.000000472 0.000000408 0.000001621
      90
 0.000000460 0.000000395 0.000001649
      91
 0.000000445 0.000000385 0.000001658
      92
 0.000000429 0.000000375 0.000001647
      93
 0.000000411 0.000000366 0.000001615
      94
 0.000000392 0.000000358 0.000001560
      95
 0.000000374 0.000000350 0.000001485
      96
 0.000000355 0.000000341 0.000001390
      97
 0.000000337 0.000000330 0.000001278
      98
 0.000000319 0.000000319 0.000001154
      99
 0.000000301 0.000000305 0.000001021
     100
 0.000000284 0.000000289 0.000000884
     101
 0.000000267 0.000000271 0.000000747
     102
 0.000000250 0.000000252 0.000000614
     103
 0.000000232 0.000000231 0.000000489
     104
 0.000000213 0.000000208 0.000000376
     105
 0.000000194 0.000000185 0.000000276
     106
 0.000000174 0.000000161 0.000000192
     107
 0.000000152 0.000000137 0.000000123
     108
 0.000000131 0.000000114 0.000000071
     109
 0.000000109 0.000000093 0.000000033
     110
 0.000000088 0.000000072 0.000000008
     111
 0.000000067 0.000000054-0.000000006
     112
 0.000000049 0.000000038-0.000000011
     113
 0.000000032 0.000000025-0.000000011
     114
 0.000000019 0.000000014-0.000000008
     115
 0.000000008 0.000000006-0.000000004
     116
 0.000000002 0.000000002-0.000000001
     117
 0.000000000 0.000000000 0.000000000
     118
 0.000000003 0.000000003-0.000000002
     119
 0.000000012 0.000000012-0.000000008
     120
 0.000000027 0.000000027-0.000000016
     121
 0.000000046 0.000000046-0.000000024
     122
 0.000000070 0.000000070-0.000000030
     123
 0.000000096 0.000000096-0.000000029
     124
 0.000000124 0.000000124-0.000000019
     125
 0.000000152 0.000000152 0.000000003
     126
 0.000000180 0.000000180 0.000000040
     127
 0.000000205 0.000000205 0.000000093
     128
 0.000000228 0.000000228 0.000000164
     129
 0.000000247 0.000000247 0.000000251
     130
 0.000000262 0.000000262 0.000000352
     131
 0.000000273 0.000000273 0.000000467
     132
 0.000000280 0.000000280 0.000000590
     133
 0.000000282 0.000000282 0.000000717
     134
 0.000000282 0.000000282 0.000000844
     135
 0.000000279 0.000000279 0.000000966
     136
 0.000000274 0.000000274 0.000001078
     137
 0.000000269 0.000000269 0.000001176
     138
 0.000000265 0.000000265 0.000001257
     139
 0.000000261 0.000000261 0.000001318
     140
 0.000000260 0.000000260 0.000001358
     141
 0.000000263 0.000000263 0.000001378
     142
 0.000000269 0.000000269 0.000001377
     143
 0.000000279 0.000000279 0.000001357
     144
 0.000000294 0.000000294 0.000001322
     145
 0.000000312 0.000000312 0.000001274
     146
 0.000000335 0.000000335 0.000001217
     147
 0.000000362 0.000000362 0.000001155
     148
 0.000000391 0.000000391 0.000001092
     149
 0.000000423 0.000000423 0.000001029
     150
 0.000000456 0.000000456 0.000000970
     151
 0.000000489 0.000000489 0.000000916
     152
 0.000000521 0.000000521 0.000000869
     153
 0.000000551 0.000000551 0.000000829
     154
 0.000000578 0.000000578 0.000000797
     155
 0.000000602 0.000000602 0.000000772
     156
 0.000000622 0.000000622 0.000000753
     157
 0.000000636 0.000000636 0.000000741
     158
 0.000000645 0.000000645 0.000000733
     159
 0.000000648 0.000000648 0.000000731
     160
 0.000000650 0.000000650 0.000000731
     161
 0.000000658 0.000000656 0.000000730
     162
 0.000000670 0.000000667 0.000000729
     163
 0.000000684 0.000000682 0.000000728
     164
 0.000000700 0.000000701 0.000000728
     165
 0.000000716 0.000000723 0.000000730
     166
 0.000000730 0.000000749 0.000000733
     167
 0.000000740 0.000000778 0.000000739
     168
 0.000000744 0.000000810 0.000000748
     169
 0.000000741 0.000000844 0.000000760
     170
 0.000000730 0.000000881 0.000000776
     171
 0.000000711 0.000000920 0.000000796
     172
 0.000000685 0.000000961 0.000000819
     173
 0.000000652 0.000001004 0.000000845
     174
 0.000000613 0.000001049 0.000000872
     175
 0.000000572 0.000001096 0.000000902
     176
 0.000000528 0.000001143 0.000000931
     177
 0.000000486 0.000001192 0.000000960
     178
 0.000000448 0.000001243 0.000000987
     179
 0.000000415 0.000001294 0.000001011
     180
 0.000000389 0.000001345 0.000001032
     181
 0.000000373 0.000001396 0.000001049
     182
 0.000000367 0.000001447 0.000001062
     183
 0.000000372 0.000001496 0.000001070
     184
 0.000000386 0.000001544 0.000001074
     185
 0.000000409 0.000001589 0.000001074
     186
 0.000000440 0.000001631 0.000001073
     187
 0.000000475 0.000001668 0.000001072
     188
 0.000000509 0.000001700 0.000001073
     189
 0.000000539 0.000001726 0.000001082
     190
 0.000000558 0.000001745 0.000001102
     191
 0.000000562 0.000001756 0.000001138
     192
 0.000000550 0.000001759 0.000001188
     193
 0.000000531 0.000001753 0.000001243
     194
 0.000000533 0.000001721 0.000001273
     195
 0.000000541 0.000001665 0.000001317
     196
 0.000000558 0.000001613 0.000001348
     197
 0.000000587 0.000001559 0.000001367
     198
 0.000000630 0.000001495 0.000001379
     199
 0.000000682 0.000001422 0.000001390
     200
 0.000000738 0.000001344 0.000001401
     201
 0.000000790 0.000001265 0.000001414
     202
 0.000000840 0.000001184 0.000001430
     203
 0.000000916 0.000001073 0.000001450
     204
 0.000001253 0.000000695 0.000001473
     205
 0.000001191 0.000000713 0.000001500
     206
 0.000001106 0.000000751 0.000001530
     207
 0.000001049 0.000000758 0.000001562
     208
 0.000001003 0.000000754 0.000001595
     209
 0.000000962 0.000000746 0.000001628
     210
 0.000000926 0.000000735 0.000001660
     211
 0.000000893 0.000000724 0.000001690
     212
 0.000000866 0.000000714 0.000001716
     213
 0.000000844 0.000000706 0.000001737
     214
 0.000000828 0.000000699 0.000001753
     215
 0.000000818 0.000000695 0.000001763
     216
 0.000000814 0.000000694 0.000001767
Norm of the difference between old and new effective charges:    0.00000000000000000000
Norm of the difference between old and new force-constants:   0.00445717074314676016
 Broadening   0.0000
       1
 0.000000000 0.000000000 0.000000000
       2
 0.000000001-0.000000001 0.000000001
       3
 0.000000004-0.000000004 0.000000004
       4
 0.000000009-0.000000009 0.000000009
       5
 0.000000016-0.000000015 0.000000016
       6
 0.000000025-0.000000021 0.000000025
       7
 0.000000036-0.000000028 0.000000037
       8
 0.000000048-0.000000034 0.000000052
       9
 0.000000063-0.000000039 0.000000071
      10
 0.000000078-0.000000042 0.000000093
      11
 0.000000096-0.000000041 0.000000119
      12
 0.000000114-0.000000038 0.000000150
      13
 0.000000134-0.000000030 0.000000185
      14
 0.000000155-0.000000017 0.000000224
      15
 0.000000178 0.000000000 0.000000269
      16
 0.000000201 0.000000023 0.000000318
      17
 0.000000226 0.000000051 0.000000371
      18
 0.000000251 0.000000084 0.000000428
      19
 0.000000278 0.000000123 0.000000489
      20
 0.000000306 0.000000167 0.000000552
      21
 0.000000334 0.000000216 0.000000618
      22
 0.000000363 0.000000269 0.000000686
      23
 0.000000393 0.000000325 0.000000755
      24
 0.000000422 0.000000385 0.000000824
      25
 0.000000452 0.000000446 0.000000893
      26
 0.000000480 0.000000509 0.000000961
      27
 0.000000508 0.000000571 0.000001029
      28
 0.000000534 0.000000632 0.000001094
      29
 0.000000558 0.000000691 0.000001158
      30
 0.000000581 0.000000747 0.000001220
      31
 0.000000601 0.000000797 0.000001278
      32
 0.000000618 0.000000842 0.000001334
      33
 0.000000634 0.000000880 0.000001387
      34
 0.000000912 0.000000647 0.000001437
      35
 0.000000935 0.000000657 0.000001483
      36
 0.000000951 0.000000666 0.000001525
      37
 0.000000959 0.000000673 0.000001564
      38
 0.000000960 0.000000679 0.000001599
      39
 0.000000955 0.000000683 0.000001630
      40
 0.000000944 0.000000686 0.000001658
      41
 0.000000928 0.000000688 0.000001682
      42
 0.000000910 0.000000690 0.000001703
      43
 0.000000890 0.000000691 0.000001720
      44
 0.000000871 0.000000692 0.000001735
      45
 0.000000852 0.000000693 0.000001747
      46
 0.000000837 0.000000693 0.000001755
      47
 0.000000825 0.000000693 0.000001762
      48
 0.000000817 0.000000694 0.000001765
      49
 0.000000814 0.000000694 0.000001767
      50
 0.000000818 0.000000697 0.000001763
      51
 0.000000829 0.000000705 0.000001753
      52
 0.000000847 0.000000719 0.000001735
      53
 0.000000869 0.000000739 0.000001712
      54
 0.000000894 0.000000764 0.000001683
      55
 0.000000920 0.000000795 0.000001650
      56
 0.000000944 0.000000829 0.000001612
      57
 0.000000965 0.000000868 0.000001571
      58
 0.000000980 0.000000909 0.000001528
      59
 0.000000987 0.000000953 0.000001483
      60
 0.000000985 0.000000996 0.000001436
      61
 0.000000974 0.000001039 0.000001389
      62
 0.000000953 0.000001080 0.000001341
      63
 0.000000923 0.000001117 0.000001292
      64
 0.000000885 0.000001150 0.000001241
      65
 0.000000840 0.000001178 0.000001189
      66
 0.000000840 0.000001178 0.000001189
      67
 0.000000794 0.000001202 0.000001135
      68
 0.000000745 0.000001226 0.000001073
      69
 0.000000696 0.000001262 0.000000993
      70
 0.000000649 0.000001334 0.000000870
      71
 0.000000604 0.000001274 0.000000874
      72
 0.000000564 0.000001100 0.000000989
      73
 0.000000529 0.000001003 0.000001023
      74
 0.000000501 0.000000934 0.000001032
      75
 0.000000479 0.000000874 0.000001034
      76
 0.000000465 0.000000820 0.000001036
      77
 0.000000456 0.000000769 0.000001043
      78
 0.000000453 0.000000721 0.000001057
      79
 0.000000454 0.000000677 0.000001079
      80
 0.000000459 0.000000635 0.000001111
      81
 0.000000465 0.000000597 0.000001153
      82
 0.000000473 0.000000562 0.000001205
      83
 0.000000480 0.000000531 0.000001263
      84
 0.000000486 0.000000503 0.000001328
      85
 0.000000489 0.000000479 0.000001395
      86
 0.000000490 0.000000457 0.000001461
      87
 0.000000487 0.000000438 0.000001524
      88
 0.000000481 0.000000422 0.000001578
      89
 0.000000472 0.000000408 0.000001621
      90
 0.000000460 0.000000395 0.000001649
      91
 0.000000445 0.000000385 0.000001658
      92
 0.000000429 0.000000375 0.000001647
      93
 0.000000411 0.000000366 0.000001615
      94
 0.000000392 0.000000358 0.000001560
      95
 0.000000374 0.000000350 0.000001485
      96
 0.000000355 0.000000341 0.000001390
      97
 0.000000337 0.000000330 0.000001278
      98
 0.000000319 0.000000319 0.000001154
      99
 0.000000301 0.000000305 0.000001021
     100
 0.000000284 0.000000289 0.000000884
     101
 0.000000267 0.000000271 0.000000747
     102
 0.000000250 0.000000252 0.000000614
     103
 0.000000232 0.000000231 0.000000489
     104
 0.000000213 0.000000208 0.000000376
     105
 0.000000194 0.000000185 0.000000276
     106
 0.000000174 0.000000161 0.000000192
     107
 0.000000152 0.000000137 0.000000123
     108
 0.000000131 0.000000114 0.000000071
     109
 0.000000109 0.000000093 0.000000033
     110
 0.000000088 0.000000072 0.000000008
     111
 0.000000067 0.000000054-0.000000006
     112
 0.000000049 0.000000038-0.000000011
     113
 0.000000032 0.000000025-0.000000011
     114
 0.000000019 0.000000014-0.000000008
     115
 0.000000008 0.000000006-0.000000004
     116
 0.000000002 0.000000002-0.000000001
     117
 0.000000000 0.000000000 0.000000000
     118
 0.000000003 0.000000003-0.000000002
     119
 0.000000012 0.000000012-0.000000008
     120
 0.000000027 0.000000027-0.000000016
     121
 0.000000046 0.000000046-0.000000024
     122
 0.000000070 0.000000070-0.000000030
     123
 0.000000096 0.000000096-0.000000029
     124
 0.000000124 0.000000124-0.000000019
     125
 0.000000152 0.000000152 0.000000003
     126
 0.000000180 0.000000180 0.000000040
     127
 0.000000205 0.000000205 0.000000093
     128
 0.000000228 0.000000228 0.000000164
     129
 0.000000247 0.000000247 0.000000251
     130
 0.000000262 0.000000262 0.000000352
     131
 0.000000273 0.000000273 0.000000467
     132
 0.000000280 0.000000280 0.000000590
     133
 0.000000282 0.000000282 0.000000717
     134
 0.000000282 0.000000282 0.000000844
     135
 0.000000279 0.000000279 0.000000966
     136
 0.000000274 0.000000274 0.000001078
     137
 0.000000269 0.000000269 0.000001176
     138
 0.000000265 0.000000265 0.000001257
     139
 0.000000261 0.000000261 0.000001318
     140
 0.000000260 0.000000260 0.000001358
     141
 0.000000263 0.000000263 0.000001378
     142
 0.000000269 0.000000269 0.000001377
     143
 0.000000279 0.000000279 0.000001357
     144
 0.000000294 0.000000294 0.000001322
     145
 0.000000312 0.000000312 0.000001274
     146
 0.000000335 0.000000335 0.000001217
     147
 0.000000362 0.000000362 0.000001155
     148
 0.000000391 0.000000391 0.000001092
     149
 0.000000423 0.000000423 0.000001029
     150
 0.000000456 0.000000456 0.000000970
     151
 0.000000489 0.000000489 0.000000916
     152
 0.000000521 0.000000521 0.000000869
     153
 0.000000551 0.000000551 0.000000829
     154
 0.000000578 0.000000578 0.000000797
     155
 0.000000602 0.000000602 0.000000772
     156
 0.000000622 0.000000622 0.000000753
     157
 0.000000636 0.000000636 0.000000741
     158
 0.000000645 0.000000645 0.000000733
     159
 0.000000648 0.000000648 0.000000731
     160
 0.000000650 0.000000650 0.000000731
     161
 0.000000658 0.000000656 0.000000730
     162
 0.000000670 0.000000667 0.000000729
     163
 0.000000684 0.000000682 0.000000728
     164
 0.000000700 0.000000701 0.000000728
     165
 0.000000716 0.000000723 0.000000730
     166
 0.000000730 0.000000749 0.000000733
     167
 0.000000740 0.000000778 0.000000739
     168
 0.000000744 0.000000810 0.000000748
     169
 0.000000741 0.000000844 0.000000760
     170
 0.000000730 0.000000881 0.000000776
     171
 0.000000711 0.000000920 0.000000796
     172
 0.000000685 0.000000961 0.000000819
     173
 0.000000652 0.000001004 0.000000845
     174
 0.000000613 0.000001049 0.000000872
     175
 0.000000572 0.000001096 0.000000902
     176
 0.000000528 0.000001143 0.000000931
     177
 0.000000486 0.000001192 0.000000960
     178
 0.000000448 0.000001243 0.000000987
     179
 0.000000415 0.000001294 0.000001011
     180
 0.000000389 0.000001345 0.000001032
     181
 0.000000373 0.000001396 0.000001049
     182
 0.000000367 0.000001447 0.000001062
     183
 0.000000372 0.000001496 0.000001070
     184
 0.000000386 0.000001544 0.000001074
     185
 0.000000409 0.000001589 0.000001074
     186
 0.000000440 0.000001631 0.000001073
     187
 0.000000475 0.000001668 0.000001072
     188
 0.000000509 0.000001700 0.000001073
     189
 0.000000539 0.000001726 0.000001082
     190
 0.000000558 0.000001745 0.000001102
     191
 0.000000562 0.000001756 0.000001138
     192
 0.000000550 0.000001759 0.000001188
     193
 0.000000531 0.000001753 0.000001243
     194
 0.000000533 0.000001721 0.000001273
     195
 0.000000541 0.000001665 0.000001317
     196
 0.000000558 0.000001613 0.000001348
     197
 0.000000587 0.000001559 0.000001367
     198
 0.000000630 0.000001495 0.000001379
     199
 0.000000682 0.000001422 0.000001390
     200
 0.000000738 0.000001344 0.000001401
     201
 0.000000790 0.000001265 0.000001414
     202
 0.000000840 0.000001184 0.000001430
     203
 0.000000916 0.000001073 0.000001450
     204
 0.000001253 0.000000695 0.000001473
     205
 0.000001191 0.000000713 0.000001500
     206
 0.000001106 0.000000751 0.000001530
     207
 0.000001049 0.000000758 0.000001562
     208
 0.000001003 0.000000754 0.000001595
     209
 0.000000962 0.000000746 0.000001628
     210
 0.000000926 0.000000735 0.000001660
     211
 0.000000893 0.000000724 0.000001690
     212
 0.000000866 0.000000714 0.000001716
     213
 0.000000844 0.000000706 0.000001737
     214
 0.000000828 0.000000699 0.000001753
     215
 0.000000818 0.000000695 0.000001763
     216
 0.000000814 0.000000694 0.000001767
Norm of the difference between old and new effective charges:    0.00000000000000000000
Norm of the difference between old and new force-constants:   0.00445717074314676016
 Broadening   0.0000
       1
 0.000000000 0.000000000 0.000000000
       2
 0.000000001-0.000000001 0.000000001
       3
 0.000000004-0.000000004 0.000000004
       4
 0.000000009-0.000000009 0.000000009
       5
 0.000000016-0.000000015 0.000000016
       6
 0.000000025-0.000000021 0.000000025
       7
 0.000000036-0.000000028 0.000000037
       8
 0.000000048-0.000000034 0.000000052
       9
 0.000000063-0.000000039 0.000000071
      10
 0.000000078-0.000000042 0.000000093
      11
 0.000000096-0.000000041 0.000000119
      12
 0.000000114-0.000000038 0.000000150
      13
 0.000000134-0.000000030 0.000000185
      14
 0.000000155-0.000000017 0.000000224
      15
 0.000000178 0.000000000 0.000000269
      16
 0.000000201 0.000000023 0.000000318
      17
 0.000000226 0.000000051 0.000000371
      18
 0.000000251 0.000000084 0.000000428
      19
 0.000000278 0.000000123 0.000000489
      20
 0.000000306 0.000000167 0.000000552
      21
 0.000000334 0.000000216 0.000000618
      22
 0.000000363 0.000000269 0.000000686
      23
 0.000000393 0.000000325 0.000000755
      24
 0.000000422 0.000000385 0.000000824
      25
 0.000000452 0.000000446 0.000000893
      26
 0.000000480 0.000000509 0.000000961
      27
 0.000000508 0.000000571 0.000001029
      28
 0.000000534 0.000000632 0.000001094
      29
 0.000000558 0.000000691 0.000001158
      30
 0.000000581 0.000000747 0.000001220
      31
 0.000000601 0.000000797 0.000001278
      32
 0.000000618 0.000000842 0.000001334
      33
 0.000000634 0.000000880 0.000001387
      34
 0.000000912 0.000000647 0.000001437
      35
 0.000000935 0.000000657 0.000001483
      36
 0.000000951 0.000000666 0.000001525
      37
 0.000000959 0.000000673 0.000001564
      38
 0.000000960 0.000000679 0.000001599
      39
 0.000000955 0.000000683 0.000001630
      40
 0.000000944 0.000000686 0.000001658
      41
 0.000000928 0.000000688 0.000001682
      42
 0.000000910 0.000000690 0.000001703
      43
 0.000000890 0.000000691 0.000001720
      44
 0.000000871 0.000000692 0.000001735
      45
 0.000000852 0.000000693 0.000001747
      46
 0.000000837 0.000000693 0.000001755
      47
 0.000000825 0.000000693 0.000001762
      48
 0.000000817 0.000000694 0.000001765
      49
 0.000000814 0.000000694 0.000001767
      50
 0.000000818 0.000000697 0.000001763
      51
 0.000000829 0.000000705 0.000001753
      52
 0.000000847 0.000000719 0.000001735
      53
 0.000000869 0.000000739 0.000001712
      54
 0.000000894 0.000000764 0.000001683
      55
 0.000000920 0.000000795 0.000001650
      56
 0.000000944 0.000000829 0.000001612
      57
 0.000000965 0.000000868 0.000001571
      58
 0.000000980 0.000000909 0.000001528
      59
 0.000000987 0.000000953 0.000001483
      60
 0.000000985 0.000000996 0.000001436
      61
 0.000000974 0.000001039 0.000001389
      62
 0.000000953 0.000001080 0.000001341
      63
 0.000000923 0.000001117 0.000001292
      64
 0.000000885 0.000001150 0.000001241
      65
 0.000000840 0.000001178 0.000001189
      66
 0.000000840 0.000001178 0.000001189
      67
 0.000000794 0.000001202 0.000001135
      68
 0.000000745 0.000001226 0.000001073
      69
 0.000000696 0.000001262 0.000000993
      70
 0.000000649 0.000001334 0.000000870
      71
 0.000000604 0.000001274 0.000000874
      72
 0.000000564 0.000001100 0.000000989
      73
 0.000000529 0.000001003 0.000001023
      74
 0.000000501 0.000000934 0.000001032
      75
 0.000000479 0.000000874 0.000001034
      76
 0.000000465 0.000000820 0.000001036
      77
 0.000000456 0.000000769 0.000001043
      78
 0.000000453 0.000000721 0.000001057
      79
 0.000000454 0.000000677 0.000001079
      80
 0.000000459 0.000000635 0.000001111
      81
 0.000000465 0.000000597 0.000001153
      82
 0.000000473 0.000000562 0.000001205
      83
 0.000000480 0.000000531 0.000001263
      84
 0.000000486 0.000000503 0.000001328
      85
 0.000000489 0.000000479 0.000001395
      86
 0.000000490 0.000000457 0.000001461
      87
 0.000000487 0.000000438 0.000001524
      88
 0.000000481 0.000000422 0.000001578
      89
 0.000000472 0.000000408 0.000001621
      90
 0.000000460 0.000000395 0.000001649
      91
 0.000000445 0.000000385 0.000001658
      92
 0.000000429 0.000000375 0.000001647
      93
 0.000000411 0.000000366 0.000001615
      94
 0.000000392 0.000000358 0.000001560
      95
 0.000000374 0.000000350 0.000001485
      96
 0.000000355 0.000000341 0.000001390
      97
 0.000000337 0.000000330 0.000001278
      98
 0.000000319 0.000000319 0.000001154
      99
 0.000000301 0.000000305 0.000001021
     100
 0.000000284 0.000000289 0.000000884
     101
 0.000000267 0.000000271 0.000000747
     102
 0.000000250 0.000000252 0.000000614
     103
 0.000000232 0.000000231 0.000000489
     104
 0.000000213 0.000000208 0.000000376
     105
 0.000000194 0.000000185 0.000000276
     106
 0.000000174 0.000000161 0.000000192
     107
 0.000000152 0.000000137 0.000000123
     108
 0.000000131 0.000000114 0.000000071
     109
 0.000000109 0.000000093 0.000000033
     110
 0.000000088 0.000000072 0.000000008
     111
 0.000000067 0.000000054-0.000000006
     112
 0.000000049 0.000000038-0.000000011
     113
 0.000000032 0.000000025-0.000000011
     114
 0.000000019 0.000000014-0.000000008
     115
 0.000000008 0.000000006-0.000000004
     116
 0.000000002 0.000000002-0.000000001
     117
 0.000000000 0.000000000 0.000000000
     118
 0.000000003 0.000000003-0.000000002
     119
 0.000000012 0.000000012-0.000000008
     120
 0.000000027 0.000000027-0.000000016
     121
 0.000000046 0.000000046-0.000000024
     122
 0.000000070 0.000000070-0.000000030
     123
 0.000000096 0.000000096-0.000000029
     124
 0.000000124 0.000000124-0.000000019
     125
 0.000000152 0.000000152 0.000000003
     126
 0.000000180 0.000000180 0.000000040
     127
 0.000000205 0.000000205 0.000000093
     128
 0.000000228 0.000000228 0.000000164
     129
 0.000000247 0.000000247 0.000000251
     130
 0.000000262 0.000000262 0.000000352
     131
 0.000000273 0.000000273 0.000000467
     132
 0.000000280 0.000000280 0.000000590
     133
 0.000000282 0.000000282 0.000000717
     134
 0.000000282 0.000000282 0.000000844
     135
 0.000000279 0.000000279 0.000000966
     136
 0.000000274 0.000000274 0.000001078
     137
 0.000000269 0.000000269 0.000001176
     138
 0.000000265 0.000000265 0.000001257
     139
 0.000000261 0.000000261 0.000001318
     140
 0.000000260 0.000000260 0.000001358
     141
 0.000000263 0.000000263 0.000001378
     142
 0.000000269 0.000000269 0.000001377
     143
 0.000000279 0.000000279 0.000001357
     144
 0.000000294 0.000000294 0.000001322
     145
 0.000000312 0.000000312 0.000001274
     146
 0.000000335 0.000000335 0.000001217
     147
 0.000000362 0.000000362 0.000001155
     148
 0.000000391 0.000000391 0.000001092
     149
 0.000000423 0.000000423 0.000001029
     150
 0.000000456 0.000000456 0.000000970
     151
 0.000000489 0.000000489 0.000000916
     152
 0.000000521 0.000000521 0.000000869
     153
 0.000000551 0.000000551 0.000000829
     154
 0.000000578 0.000000578 0.000000797
     155
 0.000000602 0.000000602 0.000000772
     156
 0.000000622 0.000000622 0.000000753
     157
 0.000000636 0.000000636 0.000000741
     158
 0.000000645 0.000000645 0.000000733
     159
 0.000000648 0.000000648 0.000000731
     160
 0.000000650 0.000000650 0.000000731
     161
 0.000000658 0.000000656 0.000000730
     162
 0.000000670 0.000000667 0.000000729
     163
 0.000000684 0.000000682 0.000000728
     164
 0.000000700 0.000000701 0.000000728
     165
 0.000000716 0.000000723 0.000000730
     166
 0.000000730 0.000000749 0.000000733
     167
 0.000000740 0.000000778 0.000000739
     168
 0.000000744 0.000000810 0.000000748
     169
 0.000000741 0.000000844 0.000000760
     170
 0.000000730 0.000000881 0.000000776
     171
 0.000000711 0.000000920 0.000000796
     172
 0.000000685 0.000000961 0.000000819
     173
 0.000000652 0.000001004 0.000000845
     174
 0.000000613 0.000001049 0.000000872
     175
 0.000000572 0.000001096 0.000000902
     176
 0.000000528 0.000001143 0.000000931
     177
 0.000000486 0.000001192 0.000000960
     178
 0.000000448 0.000001243 0.000000987
     179
 0.000000415 0.000001294 0.000001011
     180
 0.000000389 0.000001345 0.000001032
     181
 0.000000373 0.000001396 0.000001049
     182
 0.000000367 0.000001447 0.000001062
     183
 0.000000372 0.000001496 0.000001070
     184
 0.000000386 0.000001544 0.000001074
     185
 0.000000409 0.000001589 0.000001074
     186
 0.000000440 0.000001631 0.000001073
     187
 0.000000475 0.000001668 0.000001072
     188
 0.000000509 0.000001700 0.000001073
     189
 0.000000539 0.000001726 0.000001082
     190
 0.000000558 0.000001745 0.000001102
     191
 0.000000562 0.000001756 0.000001138
     192
 0.000000550 0.000001759 0.000001188
     193
 0.000000531 0.000001753 0.000001243
     194
 0.000000533 0.000001721 0.000001273
     195
 0.000000541 0.000001665 0.000001317
     196
 0.000000558 0.000001613 0.000001348
     197
 0.000000587 0.000001559 0.000001367
     198
 0.000000630 0.000001495 0.000001379
     199
 0.000000682 0.000001422 0.000001390
     200
 0.000000738 0.000001344 0.000001401
     201
 0.000000790 0.000001265 0.000001414
     202
 0.000000840 0.000001184 0.000001430
     203
 0.000000916 0.000001073 0.000001450
     204
 0.000001253 0.000000695 0.000001473
     205
 0.000001191 0.000000713 0.000001500
     206
 0.000001106 0.000000751 0.000001530
     207
 0.000001049 0.000000758 0.000001562
     208
 0.000001003 0.000000754 0.000001595
     209
 0.000000962 0.000000746 0.000001628
     210
 0.000000926 0.000000735 0.000001660
     211
 0.000000893 0.000000724 0.000001690
     212
 0.000000866 0.000000714 0.000001716
     213
 0.000000844 0.000000706 0.000001737
     214
 0.000000828 0.000000699 0.000001753
     215
 0.000000818 0.000000695 0.000001763
     216
 0.000000814 0.000000694 0.000001767
Norm of the difference between old and new effective charges:    0.00000000000000000000
Norm of the difference between old and new force-constants:   0.00445717074314676016
 Broadening   0.0000
       1
 0.000000000 0.000000000 0.000000000
       2
 0.000000001-0.000000001 0.000000001
       3
 0.000000004-0.000000004 0.000000004
       4
 0.000000009-0.000000009 0.000000009
       5
 0.000000016-0.000000015 0.000000016
       6
 0.000000025-0.000000021 0.000000025
       7
 0.000000036-0.000000028 0.000000037
       8
 0.000000048-0.000000034 0.000000052
       9
 0.000000063-0.000000039 0.000000071
      10
 0.000000078-0.000000042 0.000000093
      11
 0.000000096-0.000000041 0.000000119
      12
 0.000000114-0.000000038 0.000000150
      13
 0.000000134-0.000000030 0.000000185
      14
 0.000000155-0.000000017 0.000000224
      15
 0.000000178 0.000000000 0.000000269
      16
 0.000000201 0.000000023 0.000000318
      17
 0.000000226 0.000000051 0.000000371
      18
 0.000000251 0.000000084 0.000000428
      19
 0.000000278 0.000000123 0.000000489
      20
 0.000000306 0.000000167 0.000000552
      21
 0.000000334 0.000000216 0.000000618
      22
 0.000000363 0.000000269 0.000000686
      23
 0.000000393 0.000000325 0.000000755
      24
 0.000000422 0.000000385 0.000000824
      25
 0.000000452 0.000000446 0.000000893
      26
 0.000000480 0.000000509 0.000000961
      27
 0.000000508 0.000000571 0.000001029
      28
 0.000000534 0.000000632 0.000001094
      29
 0.000000558 0.000000691 0.000001158
      30
 0.000000581 0.000000747 0.000001220
      31
 0.000000601 0.000000797 0.000001278
      32
 0.000000618 0.000000842 0.000001334
      33
 0.000000634 0.000000880 0.000001387
      34
 0.000000912 0.000000647 0.000001437
      35
 0.000000935 0.000000657 0.000001483
      36
 0.000000951 0.000000666 0.000001525
      37
 0.000000959 0.000000673 0.000001564
      38
 0.000000960 0.000000679 0.000001599
      39
 0.000000955 0.000000683 0.000001630
      40
 0.000000944 0.000000686 0.000001658
      41
 0.000000928 0.000000688 0.000001682
      42
 0.000000910 0.000000690 0.000001703
      43
 0.000000890 0.000000691 0.000001720
      44
 0.000000871 0.000000692 0.000001735
      45
 0.000000852 0.000000693 0.000001747
      46
 0.000000837 0.000000693 0.000001755
      47
 0.000000825 0.000000693 0.000001762
      48
 0.000000817 0.000000694 0.000001765
      49
 0.000000814 0.000000694 0.000001767
      50
 0.000000818 0.000000697 0.000001763
      51
 0.000000829 0.000000705 0.000001753
      52
 0.000000847 0.000000719 0.000001735
      53
 0.000000869 0.000000739 0.000001712
      54
 0.000000894 0.000000764 0.000001683
      55
 0.000000920 0.000000795 0.000001650
      56
 0.000000944 0.000000829 0.000001612
      57
 0.000000965 0.000000868 0.000001571
      58
 0.000000980 0.000000909 0.000001528
      59
 0.000000987 0.000000953 0.000001483
      60
 0.000000985 0.000000996 0.000001436
      61
 0.000000974 0.000001039 0.000001389
      62
 0.000000953 0.000001080 0.000001341
      63
 0.000000923 0.000001117 0.000001292
      64
 0.000000885 0.000001150 0.000001241
      65
 0.000000840 0.000001178 0.000001189
      66
 0.000000840 0.000001178 0.000001189
      67
 0.000000794 0.000001202 0.000001135
      68
 0.000000745 0.000001226 0.000001073
      69
 0.000000696 0.000001262 0.000000993
      70
 0.000000649 0.000001334 0.000000870
      71
 0.000000604 0.000001274 0.000000874
      72
 0.000000564 0.000001100 0.000000989
      73
 0.000000529 0.000001003 0.000001023
      74
 0.000000501 0.000000934 0.000001032
      75
 0.000000479 0.000000874 0.000001034
      76
 0.000000465 0.000000820 0.000001036
      77
 0.000000456 0.000000769 0.000001043
      78
 0.000000453 0.000000721 0.000001057
      79
 0.000000454 0.000000677 0.000001079
      80
 0.000000459 0.000000635 0.000001111
      81
 0.000000465 0.000000597 0.000001153
      82
 0.000000473 0.000000562 0.000001205
      83
 0.000000480 0.000000531 0.000001263
      84
 0.000000486 0.000000503 0.000001328
      85
 0.000000489 0.000000479 0.000001395
      86
 0.000000490 0.000000457 0.000001461
      87
 0.000000487 0.000000438 0.000001524
      88
 0.000000481 0.000000422 0.000001578
      89
 0.000000472 0.000000408 0.000001621
      90
 0.000000460 0.000000395 0.000001649
      91
 0.000000445 0.000000385 0.000001658
      92
 0.000000429 0.000000375 0.000001647
      93
 0.000000411 0.000000366 0.000001615
      94
 0.000000392 0.000000358 0.000001560
      95
 0.000000374 0.000000350 0.000001485
      96
 0.000000355 0.000000341 0.000001390
      97
 0.000000337 0.000000330 0.000001278
      98
 0.000000319 0.000000319 0.000001154
      99
 0.000000301 0.000000305 0.000001021
     100
 0.000000284 0.000000289 0.000000884
     101
 0.000000267 0.000000271 0.000000747
     102
 0.000000250 0.000000252 0.000000614
     103
 0.000000232 0.000000231 0.000000489
     104
 0.000000213 0.000000208 0.000000376
     105
 0.000000194 0.000000185 0.000000276
     106
 0.000000174 0.000000161 0.000000192
     107
 0.000000152 0.000000137 0.000000123
     108
 0.000000131 0.000000114 0.000000071
     109
 0.000000109 0.000000093 0.000000033
     110
 0.000000088 0.000000072 0.000000008
     111
 0.000000067 0.000000054-0.000000006
     112
 0.000000049 0.000000038-0.000000011
     113
 0.000000032 0.000000025-0.000000011
     114
 0.000000019 0.000000014-0.000000008
     115
 0.000000008 0.000000006-0.000000004
     116
 0.000000002 0.000000002-0.000000001
     117
 0.000000000 0.000000000 0.000000000
     118
 0.000000003 0.000000003-0.000000002
     119
 0.000000012 0.000000012-0.000000008
     120
 0.000000027 0.000000027-0.000000016
     121
 0.000000046 0.000000046-0.000000024
     122
 0.000000070 0.000000070-0.000000030
     123
 0.000000096 0.000000096-0.000000029
     124
 0.000000124 0.000000124-0.000000019
     125
 0.000000152 0.000000152 0.000000003
     126
 0.000000180 0.000000180 0.000000040
     127
 0.000000205 0.000000205 0.000000093
     128
 0.000000228 0.000000228 0.000000164
     129
 0.000000247 0.000000247 0.000000251
     130
 0.000000262 0.000000262 0.000000352
     131
 0.000000273 0.000000273 0.000000467
     132
 0.000000280 0.000000280 0.000000590
     133
 0.000000282 0.000000282 0.000000717
     134
 0.000000282 0.000000282 0.000000844
     135
 0.000000279 0.000000279 0.000000966
     136
 0.000000274 0.000000274 0.000001078
     137
 0.000000269 0.000000269 0.000001176
     138
 0.000000265 0.000000265 0.000001257
     139
 0.000000261 0.000000261 0.000001318
     140
 0.000000260 0.000000260 0.000001358
     141
 0.000000263 0.000000263 0.000001378
     142
 0.000000269 0.000000269 0.000001377
     143
 0.000000279 0.000000279 0.000001357
     144
 0.000000294 0.000000294 0.000001322
     145
 0.000000312 0.000000312 0.000001274
     146
 0.000000335 0.000000335 0.000001217
     147
 0.000000362 0.000000362 0.000001155
     148
 0.000000391 0.000000391 0.000001092
     149
 0.000000423 0.000000423 0.000001029
     150
 0.000000456 0.000000456 0.000000970
     151
 0.000000489 0.000000489 0.000000916
     152
 0.000000521 0.000000521 0.000000869
     153
 0.000000551 0.000000551 0.000000829
     154
 0.000000578 0.000000578 0.000000797
     155
 0.000000602 0.000000602 0.000000772
     156
 0.000000622 0.000000622 0.000000753
     157
 0.000000636 0.000000636 0.000000741
     158
 0.000000645 0.000000645 0.000000733
     159
 0.000000648 0.000000648 0.000000731
     160
 0.000000650 0.000000650 0.000000731
     161
 0.000000658 0.000000656 0.000000730
     162
 0.000000670 0.000000667 0.000000729
     163
 0.000000684 0.000000682 0.000000728
     164
 0.000000700 0.000000701 0.000000728
     165
 0.000000716 0.000000723 0.000000730
     166
 0.000000730 0.000000749 0.000000733
     167
 0.000000740 0.000000778 0.000000739
     168
 0.000000744 0.000000810 0.000000748
     169
 0.000000741 0.000000844 0.000000760
     170
 0.000000730 0.000000881 0.000000776
     171
 0.000000711 0.000000920 0.000000796
     172
 0.000000685 0.000000961 0.000000819
     173
 0.000000652 0.000001004 0.000000845
     174
 0.000000613 0.000001049 0.000000872
     175
 0.000000572 0.000001096 0.000000902
     176
 0.000000528 0.000001143 0.000000931
     177
 0.000000486 0.000001192 0.000000960
     178
 0.000000448 0.000001243 0.000000987
     179
 0.000000415 0.000001294 0.000001011
     180
 0.000000389 0.000001345 0.000001032
     181
 0.000000373 0.000001396 0.000001049
     182
 0.000000367 0.000001447 0.000001062
     183
 0.000000372 0.000001496 0.000001070
     184
 0.000000386 0.000001544 0.000001074
     185
 0.000000409 0.000001589 0.000001074
     186
 0.000000440 0.000001631 0.000001073
     187
 0.000000475 0.000001668 0.000001072
     188
 0.000000509 0.000001700 0.000001073
     189
 0.000000539 0.000001726 0.000001082
     190
 0.000000558 0.000001745 0.000001102
     191
 0.000000562 0.000001756 0.000001138
     192
 0.000000550 0.000001759 0.000001188
     193
 0.000000531 0.000001753 0.000001243
     194
 0.000000533 0.000001721 0.000001273
     195
 0.000000541 0.000001665 0.000001317
     196
 0.000000558 0.000001613 0.000001348
     197
 0.000000587 0.000001559 0.000001367
     198
 0.000000630 0.000001495 0.000001379
     199
 0.000000682 0.000001422 0.000001390
     200
 0.000000738 0.000001344 0.000001401
     201
 0.000000790 0.000001265 0.000001414
     202
 0.000000840 0.000001184 0.000001430
     203
 0.000000916 0.000001073 0.000001450
     204
 0.000001253 0.000000695 0.000001473
     205
 0.000001191 0.000000713 0.000001500
     206
 0.000001106 0.000000751 0.000001530
     207
 0.000001049 0.000000758 0.000001562
     208
 0.000001003 0.000000754 0.000001595
     209
 0.000000962 0.000000746 0.000001628
     210
 0.000000926 0.000000735 0.000001660
     211
 0.000000893 0.000000724 0.000001690
     212
 0.000000866 0.000000714 0.000001716
     213
 0.000000844 0.000000706 0.000001737
     214
 0.000000828 0.000000699 0.000001753
     215
 0.000000818 0.000000695 0.000001763
     216
 0.000000814 0.000000694 0.000001767
Norm of the difference between old and new effective charges:    0.00000000000000000000
Norm of the difference between old and new force-constants:   0.00445717074314676016
 Broadening   0.0000
       1
 0.000000000 0.000000000 0.000000000
       2
 0.000000001-0.000000001 0.000000001
       3
 0.000000004-0.000000004 0.000000004
       4
 0.000000009-0.000000009 0.000000009
       5
 0.000000016-0.000000015 0.000000016
       6
 0.000000025-0.000000021 0.000000025
       7
 0.000000036-0.000000028 0.000000037
       8
 0.000000048-0.000000034 0.000000052
       9
 0.000000063-0.000000039 0.000000071
      10
 0.000000078-0.000000042 0.000000093
      11
 0.000000096-0.000000041 0.000000119
      12
 0.000000114-0.000000038 0.000000150
      13
 0.000000134-0.000000030 0.000000185
      14
 0.000000155-0.000000017 0.000000224
      15
 0.000000178 0.000000000 0.000000269
      16
 0.000000201 0.000000023 0.000000318
      17
 0.000000226 0.000000051 0.000000371
      18
 0.000000251 0.000000084 0.000000428
      19
 0.000000278 0.000000123 0.000000489
      20
 0.000000306 0.000000167 0.000000552
      21
 0.000000334 0.000000216 0.000000618
      22
 0.000000363 0.000000269 0.000000686
      23
 0.000000393 0.000000325 0.000000755
      24
 0.000000422 0.000000385 0.000000824
      25
 0.000000452 0.000000446 0.000000893
      26
 0.000000480 0.000000509 0.000000961
      27
 0.000000508 0.000000571 0.000001029
      28
 0.000000534 0.000000632 0.000001094
      29
 0.000000558 0.000000691 0.000001158
      30
 0.000000581 0.000000747 0.000001220
      31
 0.000000601 0.000000797 0.000001278
      32
 0.000000618 0.000000842 0.000001334
      33
 0.000000634 0.000000880 0.000001387
      34
 0.000000912 0.000000647 0.000001437
      35
 0.000000935 0.000000657 0.000001483
      36
 0.000000951 0.000000666 0.000001525
      37
 0.000000959 0.000000673 0.000001564
      38
 0.000000960 0.000000679 0.000001599
      39
 0.000000955 0.000000683 0.000001630
      40
 0.000000944 0.000000686 0.000001658
      41
 0.000000928 0.000000688 0.000001682
      42
 0.000000910 0.000000690 0.000001703
      43
 0.000000890 0.000000691 0.000001720
      44
 0.000000871 0.000000692 0.000001735
      45
 0.000000852 0.000000693 0.000001747
      46
 0.000000837 0.000000693 0.000001755
      47
 0.000000825 0.000000693 0.000001762
      48
 0.000000817 0.000000694 0.000001765
      49
 0.000000814 0.000000694 0.000001767
      50
 0.000000818 0.000000697 0.000001763
      51
 0.000000829 0.000000705 0.000001753
      52
 0.000000847 0.000000719 0.000001735
      53
 0.000000869 0.000000739 0.000001712
      54
 0.000000894 0.000000764 0.000001683
      55
 0.000000920 0.000000795 0.000001650
      56
 0.000000944 0.000000829 0.000001612
      57
 0.000000965 0.000000868 0.000001571
      58
 0.000000980 0.000000909 0.000001528
      59
 0.000000987 0.000000953 0.000001483
      60
 0.000000985 0.000000996 0.000001436
      61
 0.000000974 0.000001039 0.000001389
      62
 0.000000953 0.000001080 0.000001341
      63
 0.000000923 0.000001117 0.000001292
      64
 0.000000885 0.000001150 0.000001241
      65
 0.000000840 0.000001178 0.000001189
      66
 0.000000840 0.000001178 0.000001189
      67
 0.000000794 0.000001202 0.000001135
      68
 0.000000745 0.000001226 0.000001073
      69
 0.000000696 0.000001262 0.000000993
      70
 0.000000649 0.000001334 0.000000870
      71
 0.000000604 0.000001274 0.000000874
      72
 0.000000564 0.000001100 0.000000989
      73
 0.000000529 0.000001003 0.000001023
      74
 0.000000501 0.000000934 0.000001032
      75
 0.000000479 0.000000874 0.000001034
      76
 0.000000465 0.000000820 0.000001036
      77
 0.000000456 0.000000769 0.000001043
      78
 0.000000453 0.000000721 0.000001057
      79
 0.000000454 0.000000677 0.000001079
      80
 0.000000459 0.000000635 0.000001111
      81
 0.000000465 0.000000597 0.000001153
      82
 0.000000473 0.000000562 0.000001205
      83
 0.000000480 0.000000531 0.000001263
      84
 0.000000486 0.000000503 0.000001328
      85
 0.000000489 0.000000479 0.000001395
      86
 0.000000490 0.000000457 0.000001461
      87
 0.000000487 0.000000438 0.000001524
      88
 0.000000481 0.000000422 0.000001578
      89
 0.000000472 0.000000408 0.000001621
      90
 0.000000460 0.000000395 0.000001649
      91
 0.000000445 0.000000385 0.000001658
      92
 0.000000429 0.000000375 0.000001647
      93
 0.000000411 0.000000366 0.000001615
      94
 0.000000392 0.000000358 0.000001560
      95
 0.000000374 0.000000350 0.000001485
      96
 0.000000355 0.000000341 0.000001390
      97
 0.000000337 0.000000330 0.000001278
      98
 0.000000319 0.000000319 0.000001154
      99
 0.000000301 0.000000305 0.000001021
     100
 0.000000284 0.000000289 0.000000884
     101
 0.000000267 0.000000271 0.000000747
     102
 0.000000250 0.000000252 0.000000614
     103
 0.000000232 0.000000231 0.000000489
     104
 0.000000213 0.000000208 0.000000376
     105
 0.000000194 0.000000185 0.000000276
     106
 0.000000174 0.000000161 0.000000192
     107
 0.000000152 0.000000137 0.000000123
     108
 0.000000131 0.000000114 0.000000071
     109
 0.000000109 0.000000093 0.000000033
     110
 0.000000088 0.000000072 0.000000008
     111
 0.000000067 0.000000054-0.000000006
     112
 0.000000049 0.000000038-0.000000011
     113
 0.000000032 0.000000025-0.000000011
     114
 0.000000019 0.000000014-0.000000008
     115
 0.000000008 0.000000006-0.000000004
     116
 0.000000002 0.000000002-0.000000001
     117
 0.000000000 0.000000000 0.000000000
     118
 0.000000003 0.000000003-0.000000002
     119
 0.000000012 0.000000012-0.000000008
     120
 0.000000027 0.000000027-0.000000016
     121
 0.000000046 0.000000046-0.000000024
     122
 0.000000070 0.000000070-0.000000030
     123
 0.000000096 0.000000096-0.000000029
     124
 0.000000124 0.000000124-0.000000019
     125
 0.000000152 0.000000152 0.000000003
     126
 0.000000180 0.000000180 0.000000040
     127
 0.000000205 0.000000205 0.000000093
     128
 0.000000228 0.000000228 0.000000164
     129
 0.000000247 0.000000247 0.000000251
     130
 0.000000262 0.000000262 0.000000352
     131
 0.000000273 0.000000273 0.000000467
     132
 0.000000280 0.000000280 0.000000590
     133
 0.000000282 0.000000282 0.000000717
     134
 0.000000282 0.000000282 0.000000844
     135
 0.000000279 0.000000279 0.000000966
     136
 0.000000274 0.000000274 0.000001078
     137
 0.000000269 0.000000269 0.000001176
     138
 0.000000265 0.000000265 0.000001257
     139
 0.000000261 0.000000261 0.000001318
     140
 0.000000260 0.000000260 0.000001358
     141
 0.000000263 0.000000263 0.000001378
     142
 0.000000269 0.000000269 0.000001377
     143
 0.000000279 0.000000279 0.000001357
     144
 0.000000294 0.000000294 0.000001322
     145
 0.000000312 0.000000312 0.000001274
     146
 0.000000335 0.000000335 0.000001217
     147
 0.000000362 0.000000362 0.000001155
     148
 0.000000391 0.000000391 0.000001092
     149
 0.000000423 0.000000423 0.000001029
     150
 0.000000456 0.000000456 0.000000970
     151
 0.000000489 0.000000489 0.000000916
     152
 0.000000521 0.000000521 0.000000869
     153
 0.000000551 0.000000551 0.000000829
     154
 0.000000578 0.000000578 0.000000797
     155
 0.000000602 0.000000602 0.000000772
     156
 0.000000622 0.000000622 0.000000753
     157
 0.000000636 0.000000636 0.000000741
     158
 0.000000645 0.000000645 0.000000733
     159
 0.000000648 0.000000648 0.000000731
     160
 0.000000650 0.000000650 0.000000731
     161
 0.000000658 0.000000656 0.000000730
     162
 0.000000670 0.000000667 0.000000729
     163
 0.000000684 0.000000682 0.000000728
     164
 0.000000700 0.000000701 0.000000728
     165
 0.000000716 0.000000723 0.000000730
     166
 0.000000730 0.000000749 0.000000733
     167
 0.000000740 0.000000778 0.000000739
     168
 0.000000744 0.000000810 0.000000748
     169
 0.000000741 0.000000844 0.000000760
     170
 0.000000730 0.000000881 0.000000776
     171
 0.000000711 0.000000920 0.000000796
     172
 0.000000685 0.000000961 0.000000819
     173
 0.000000652 0.000001004 0.000000845
     174
 0.000000613 0.000001049 0.000000872
     175
 0.000000572 0.000001096 0.000000902
     176
 0.000000528 0.000001143 0.000000931
     177
 0.000000486 0.000001192 0.000000960
     178
 0.000000448 0.000001243 0.000000987
     179
 0.000000415 0.000001294 0.000001011
     180
 0.000000389 0.000001345 0.000001032
     181
 0.000000373 0.000001396 0.000001049
     182
 0.000000367 0.000001447 0.000001062
     183
 0.000000372 0.000001496 0.000001070
     184
 0.000000386 0.000001544 0.000001074
     185
 0.000000409 0.000001589 0.000001074
     186
 0.000000440 0.000001631 0.000001073
     187
 0.000000475 0.000001668 0.000001072
     188
 0.000000509 0.000001700 0.000001073
     189
 0.000000539 0.000001726 0.000001082
     190
 0.000000558 0.000001745 0.000001102
     191
 0.000000562 0.000001756 0.000001138
     192
 0.000000550 0.000001759 0.000001188
     193
 0.000000531 0.000001753 0.000001243
     194
 0.000000533 0.000001721 0.000001273
     195
 0.000000541 0.000001665 0.000001317
     196
 0.000000558 0.000001613 0.000001348
     197
 0.000000587 0.000001559 0.000001367
     198
 0.000000630 0.000001495 0.000001379
     199
 0.000000682 0.000001422 0.000001390
     200
 0.000000738 0.000001344 0.000001401
     201
 0.000000790 0.000001265 0.000001414
     202
 0.000000840 0.000001184 0.000001430
     203
 0.000000916 0.000001073 0.000001450
     204
 0.000001253 0.000000695 0.000001473
     205
 0.000001191 0.000000713 0.000001500
     206
 0.000001106 0.000000751 0.000001530
     207
 0.000001049 0.000000758 0.000001562
     208
 0.000001003 0.000000754 0.000001595
     209
 0.000000962 0.000000746 0.000001628
     210
 0.000000926 0.000000735 0.000001660
     211
 0.000000893 0.000000724 0.000001690
     212
 0.000000866 0.000000714 0.000001716
     213
 0.000000844 0.000000706 0.000001737
     214
 0.000000828 0.000000699 0.000001753
     215
 0.000000818 0.000000695 0.000001763
     216
 0.000000814 0.000000694 0.000001767
Norm of the difference between old and new effective charges:    0.00000000000000000000
Norm of the difference between old and new force-constants:   0.00445717074314676016
 Broadening   0.0000
       1
 0.000000000 0.000000000 0.000000000
       2
 0.000000001-0.000000001 0.000000001
       3
 0.000000004-0.000000004 0.000000004
       4
 0.000000009-0.000000009 0.000000009
       5
 0.000000016-0.000000015 0.000000016
       6
 0.000000025-0.000000021 0.000000025
       7
 0.000000036-0.000000028 0.000000037
       8
 0.000000048-0.000000034 0.000000052
       9
 0.000000063-0.000000039 0.000000071
      10
 0.000000078-0.000000042 0.000000093
      11
 0.000000096-0.000000041 0.000000119
      12
 0.000000114-0.000000038 0.000000150
      13
 0.000000134-0.000000030 0.000000185
      14
 0.000000155-0.000000017 0.000000224
      15
 0.000000178 0.000000000 0.000000269
      16
 0.000000201 0.000000023 0.000000318
      17
 0.000000226 0.000000051 0.000000371
      18
 0.000000251 0.000000084 0.000000428
      19
 0.000000278 0.000000123 0.000000489
      20
 0.000000306 0.000000167 0.000000552
      21
 0.000000334 0.000000216 0.000000618
      22
 0.000000363 0.000000269 0.000000686
      23
 0.000000393 0.000000325 0.000000755
      24
 0.000000422 0.000000385 0.000000824
      25
 0.000000452 0.000000446 0.000000893
      26
 0.000000480 0.000000509 0.000000961
      27
 0.000000508 0.000000571 0.000001029
      28
 0.000000534 0.000000632 0.000001094
      29
 0.000000558 0.000000691 0.000001158
      30
 0.000000581 0.000000747 0.000001220
      31
 0.000000601 0.000000797 0.000001278
      32
 0.000000618 0.000000842 0.000001334
      33
 0.000000634 0.000000880 0.000001387
      34
 0.000000912 0.000000647 0.000001437
      35
 0.000000935 0.000000657 0.000001483
      36
 0.000000951 0.000000666 0.000001525
      37
 0.000000959 0.000000673 0.000001564
      38
 0.000000960 0.000000679 0.000001599
      39
 0.000000955 0.000000683 0.000001630
      40
 0.000000944 0.000000686 0.000001658
      41
 0.000000928 0.000000688 0.000001682
      42
 0.000000910 0.000000690 0.000001703
      43
 0.000000890 0.000000691 0.000001720
      44
 0.000000871 0.000000692 0.000001735
      45
 0.000000852 0.000000693 0.000001747
      46
 0.000000837 0.000000693 0.000001755
      47
 0.000000825 0.000000693 0.000001762
      48
 0.000000817 0.000000694 0.000001765
      49
 0.000000814 0.000000694 0.000001767
      50
 0.000000818 0.000000697 0.000001763
      51
 0.000000829 0.000000705 0.000001753
      52
 0.000000847 0.000000719 0.000001735
      53
 0.000000869 0.000000739 0.000001712
      54
 0.000000894 0.000000764 0.000001683
      55
 0.000000920 0.000000795 0.000001650
      56
 0.000000944 0.000000829 0.000001612
      57
 0.000000965 0.000000868 0.000001571
      58
 0.000000980 0.000000909 0.000001528
      59
 0.000000987 0.000000953 0.000001483
      60
 0.000000985 0.000000996 0.000001436
      61
 0.000000974 0.000001039 0.000001389
      62
 0.000000953 0.000001080 0.000001341
      63
 0.000000923 0.000001117 0.000001292
      64
 0.000000885 0.000001150 0.000001241
      65
 0.000000840 0.000001178 0.000001189
      66
 0.000000840 0.000001178 0.000001189
      67
 0.000000794 0.000001202 0.000001135
      68
 0.000000745 0.000001226 0.000001073
      69
 0.000000696 0.000001262 0.000000993
      70
 0.000000649 0.000001334 0.000000870
      71
 0.000000604 0.000001274 0.000000874
      72
 0.000000564 0.000001100 0.000000989
      73
 0.000000529 0.000001003 0.000001023
      74
 0.000000501 0.000000934 0.000001032
      75
 0.000000479 0.000000874 0.000001034
      76
 0.000000465 0.000000820 0.000001036
      77
 0.000000456 0.000000769 0.000001043
      78
 0.000000453 0.000000721 0.000001057
      79
 0.000000454 0.000000677 0.000001079
      80
 0.000000459 0.000000635 0.000001111
      81
 0.000000465 0.000000597 0.000001153
      82
 0.000000473 0.000000562 0.000001205
      83
 0.000000480 0.000000531 0.000001263
      84
 0.000000486 0.000000503 0.000001328
      85
 0.000000489 0.000000479 0.000001395
      86
 0.000000490 0.000000457 0.000001461
      87
 0.000000487 0.000000438 0.000001524
      88
 0.000000481 0.000000422 0.000001578
      89
 0.000000472 0.000000408 0.000001621
      90
 0.000000460 0.000000395 0.000001649
      91
 0.000000445 0.000000385 0.000001658
      92
 0.000000429 0.000000375 0.000001647
      93
 0.000000411 0.000000366 0.000001615
      94
 0.000000392 0.000000358 0.000001560
      95
 0.000000374 0.000000350 0.000001485
      96
 0.000000355 0.000000341 0.000001390
      97
 0.000000337 0.000000330 0.000001278
      98
 0.000000319 0.000000319 0.000001154
      99
 0.000000301 0.000000305 0.000001021
     100
 0.000000284 0.000000289 0.000000884
     101
 0.000000267 0.000000271 0.000000747
     102
 0.000000250 0.000000252 0.000000614
     103
 0.000000232 0.000000231 0.000000489
     104
 0.000000213 0.000000208 0.000000376
     105
 0.000000194 0.000000185 0.000000276
     106
 0.000000174 0.000000161 0.000000192
     107
 0.000000152 0.000000137 0.000000123
     108
 0.000000131 0.000000114 0.000000071
     109
 0.000000109 0.000000093 0.000000033
     110
 0.000000088 0.000000072 0.000000008
     111
 0.000000067 0.000000054-0.000000006
     112
 0.000000049 0.000000038-0.000000011
     113
 0.000000032 0.000000025-0.000000011
     114
 0.000000019 0.000000014-0.000000008
     115
 0.000000008 0.000000006-0.000000004
     116
 0.000000002 0.000000002-0.000000001
     117
 0.000000000 0.000000000 0.000000000
     118
 0.000000003 0.000000003-0.000000002
     119
 0.000000012 0.000000012-0.000000008
     120
 0.000000027 0.000000027-0.000000016
     121
 0.000000046 0.000000046-0.000000024
     122
 0.000000070 0.000000070-0.000000030
     123
 0.000000096 0.000000096-0.000000029
     124
 0.000000124 0.000000124-0.000000019
     125
 0.000000152 0.000000152 0.000000003
     126
 0.000000180 0.000000180 0.000000040
     127
 0.000000205 0.000000205 0.000000093
     128
 0.000000228 0.000000228 0.000000164
     129
 0.000000247 0.000000247 0.000000251
     130
 0.000000262 0.000000262 0.000000352
     131
 0.000000273 0.000000273 0.000000467
     132
 0.000000280 0.000000280 0.000000590
     133
 0.000000282 0.000000282 0.000000717
     134
 0.000000282 0.000000282 0.000000844
     135
 0.000000279 0.000000279 0.000000966
     136
 0.000000274 0.000000274 0.000001078
     137
 0.000000269 0.000000269 0.000001176
     138
 0.000000265 0.000000265 0.000001257
     139
 0.000000261 0.000000261 0.000001318
     140
 0.000000260 0.000000260 0.000001358
     141
 0.000000263 0.000000263 0.000001378
     142
 0.000000269 0.000000269 0.000001377
     143
 0.000000279 0.000000279 0.000001357
     144
 0.000000294 0.000000294 0.000001322
     145
 0.000000312 0.000000312 0.000001274
     146
 0.000000335 0.000000335 0.000001217
     147
 0.000000362 0.000000362 0.000001155
     148
 0.000000391 0.000000391 0.000001092
     149
 0.000000423 0.000000423 0.000001029
     150
 0.000000456 0.000000456 0.000000970
     151
 0.000000489 0.000000489 0.000000916
     152
 0.000000521 0.000000521 0.000000869
     153
 0.000000551 0.000000551 0.000000829
     154
 0.000000578 0.000000578 0.000000797
     155
 0.000000602 0.000000602 0.000000772
     156
 0.000000622 0.000000622 0.000000753
     157
 0.000000636 0.000000636 0.000000741
     158
 0.000000645 0.000000645 0.000000733
     159
 0.000000648 0.000000648 0.000000731
     160
 0.000000650 0.000000650 0.000000731
     161
 0.000000658 0.000000656 0.000000730
     162
 0.000000670 0.000000667 0.000000729
     163
 0.000000684 0.000000682 0.000000728
     164
 0.000000700 0.000000701 0.000000728
     165
 0.000000716 0.000000723 0.000000730
     166
 0.000000730 0.000000749 0.000000733
     167
 0.000000740 0.000000778 0.000000739
     168
 0.000000744 0.000000810 0.000000748
     169
 0.000000741 0.000000844 0.000000760
     170
 0.000000730 0.000000881 0.000000776
     171
 0.000000711 0.000000920 0.000000796
     172
 0.000000685 0.000000961 0.000000819
     173
 0.000000652 0.000001004 0.000000845
     174
 0.000000613 0.000001049 0.000000872
     175
 0.000000572 0.000001096 0.000000902
     176
 0.000000528 0.000001143 0.000000931
     177
 0.000000486 0.000001192 0.000000960
     178
 0.000000448 0.000001243 0.000000987
     179
 0.000000415 0.000001294 0.000001011
     180
 0.000000389 0.000001345 0.000001032
     181
 0.000000373 0.000001396 0.000001049
     182
 0.000000367 0.000001447 0.000001062
     183
 0.000000372 0.000001496 0.000001070
     184
 0.000000386 0.000001544 0.000001074
     185
 0.000000409 0.000001589 0.000001074
     186
 0.000000440 0.000001631 0.000001073
     187
 0.000000475 0.000001668 0.000001072
     188
 0.000000509 0.000001700 0.000001073
     189
 0.000000539 0.000001726 0.000001082
     190
 0.000000558 0.000001745 0.000001102
     191
 0.000000562 0.000001756 0.000001138
     192
 0.000000550 0.000001759 0.000001188
     193
 0.000000531 0.000001753 0.000001243
     194
 0.000000533 0.000001721 0.000001273
     195
 0.000000541 0.000001665 0.000001317
     196
 0.000000558 0.000001613 0.000001348
     197
 0.000000587 0.000001559 0.000001367
     198
 0.000000630 0.000001495 0.000001379
     199
 0.000000682 0.000001422 0.000001390
     200
 0.000000738 0.000001344 0.000001401
     201
 0.000000790 0.000001265 0.000001414
     202
 0.000000840 0.000001184 0.000001430
     203
 0.000000916 0.000001073 0.000001450
     204
 0.000001253 0.000000695 0.000001473
     205
 0.000001191 0.000000713 0.000001500
     206
 0.000001106 0.000000751 0.000001530
     207
 0.000001049 0.000000758 0.000001562
     208
 0.000001003 0.000000754 0.000001595
     209
 0.000000962 0.000000746 0.000001628
     210
 0.000000926 0.000000735 0.000001660
     211
 0.000000893 0.000000724 0.000001690
     212
 0.000000866 0.000000714 0.000001716
     213
 0.000000844 0.000000706 0.000001737
     214
 0.000000828 0.000000699 0.000001753
     215
 0.000000818 0.000000695 0.000001763
     216
 0.000000814 0.000000694 0.000001767
Norm of the difference between old and new effective charges:    0.00000000000000000000
Norm of the difference between old and new force-constants:   0.00445717074314676016
 Broadening   0.0000
       1
 0.000000000 0.000000000 0.000000000
       2
 0.000000001-0.000000001 0.000000001
       3
 0.000000004-0.000000004 0.000000004
       4
 0.000000009-0.000000009 0.000000009
       5
 0.000000016-0.000000015 0.000000016
       6
 0.000000025-0.000000021 0.000000025
       7
 0.000000036-0.000000028 0.000000037
       8
 0.000000048-0.000000034 0.000000052
       9
 0.000000063-0.000000039 0.000000071
      10
 0.000000078-0.000000042 0.000000093
      11
 0.000000096-0.000000041 0.000000119
      12
 0.000000114-0.000000038 0.000000150
      13
 0.000000134-0.000000030 0.000000185
      14
 0.000000155-0.000000017 0.000000224
      15
 0.000000178 0.000000000 0.000000269
      16
 0.000000201 0.000000023 0.000000318
      17
 0.000000226 0.000000051 0.000000371
      18
 0.000000251 0.000000084 0.000000428
      19
 0.000000278 0.000000123 0.000000489
      20
 0.000000306 0.000000167 0.000000552
      21
 0.000000334 0.000000216 0.000000618
      22
 0.000000363 0.000000269 0.000000686
      23
 0.000000393 0.000000325 0.000000755
      24
 0.000000422 0.000000385 0.000000824
      25
 0.000000452 0.000000446 0.000000893
      26
 0.000000480 0.000000509 0.000000961
      27
 0.000000508 0.000000571 0.000001029
      28
 0.000000534 0.000000632 0.000001094
      29
 0.000000558 0.000000691 0.000001158
      30
 0.000000581 0.000000747 0.000001220
      31
 0.000000601 0.000000797 0.000001278
      32
 0.000000618 0.000000842 0.000001334
      33
 0.000000634 0.000000880 0.000001387
      34
 0.000000912 0.000000647 0.000001437
      35
 0.000000935 0.000000657 0.000001483
      36
 0.000000951 0.000000666 0.000001525
      37
 0.000000959 0.000000673 0.000001564
      38
 0.000000960 0.000000679 0.000001599
      39
 0.000000955 0.000000683 0.000001630
      40
 0.000000944 0.000000686 0.000001658
      41
 0.000000928 0.000000688 0.000001682
      42
 0.000000910 0.000000690 0.000001703
      43
 0.000000890 0.000000691 0.000001720
      44
 0.000000871 0.000000692 0.000001735
      45
 0.000000852 0.000000693 0.000001747
      46
 0.000000837 0.000000693 0.000001755
      47
 0.000000825 0.000000693 0.000001762
      48
 0.000000817 0.000000694 0.000001765
      49
 0.000000814 0.000000694 0.000001767
      50
 0.000000818 0.000000697 0.000001763
      51
 0.000000829 0.000000705 0.000001753
      52
 0.000000847 0.000000719 0.000001735
      53
 0.000000869 0.000000739 0.000001712
      54
 0.000000894 0.000000764 0.000001683
      55
 0.000000920 0.000000795 0.000001650
      56
 0.000000944 0.000000829 0.000001612
      57
 0.000000965 0.000000868 0.000001571
      58
 0.000000980 0.000000909 0.000001528
      59
 0.000000987 0.000000953 0.000001483
      60
 0.000000985 0.000000996 0.000001436
      61
 0.000000974 0.000001039 0.000001389
      62
 0.000000953 0.000001080 0.000001341
      63
 0.000000923 0.000001117 0.000001292
      64
 0.000000885 0.000001150 0.000001241
      65
 0.000000840 0.000001178 0.000001189
      66
 0.000000840 0.000001178 0.000001189
      67
 0.000000794 0.000001202 0.000001135
      68
 0.000000745 0.000001226 0.000001073
      69
 0.000000696 0.000001262 0.000000993
      70
 0.000000649 0.000001334 0.000000870
      71
 0.000000604 0.000001274 0.000000874
      72
 0.000000564 0.000001100 0.000000989
      73
 0.000000529 0.000001003 0.000001023
      74
 0.000000501 0.000000934 0.000001032
      75
 0.000000479 0.000000874 0.000001034
      76
 0.000000465 0.000000820 0.000001036
      77
 0.000000456 0.000000769 0.000001043
      78
 0.000000453 0.000000721 0.000001057
      79
 0.000000454 0.000000677 0.000001079
      80
 0.000000459 0.000000635 0.000001111
      81
 0.000000465 0.000000597 0.000001153
      82
 0.000000473 0.000000562 0.000001205
      83
 0.000000480 0.000000531 0.000001263
      84
 0.000000486 0.000000503 0.000001328
      85
 0.000000489 0.000000479 0.000001395
      86
 0.000000490 0.000000457 0.000001461
      87
 0.000000487 0.000000438 0.000001524
      88
 0.000000481 0.000000422 0.000001578
      89
 0.000000472 0.000000408 0.000001621
      90
 0.000000460 0.000000395 0.000001649
      91
 0.000000445 0.000000385 0.000001658
      92
 0.000000429 0.000000375 0.000001647
      93
 0.000000411 0.000000366 0.000001615
      94
 0.000000392 0.000000358 0.000001560
      95
 0.000000374 0.000000350 0.000001485
      96
 0.000000355 0.000000341 0.000001390
      97
 0.000000337 0.000000330 0.000001278
      98
 0.000000319 0.000000319 0.000001154
      99
 0.000000301 0.000000305 0.000001021
     100
 0.000000284 0.000000289 0.000000884
     101
 0.000000267 0.000000271 0.000000747
     102
 0.000000250 0.000000252 0.000000614
     103
 0.000000232 0.000000231 0.000000489
     104
 0.000000213 0.000000208 0.000000376
     105
 0.000000194 0.000000185 0.000000276
     106
 0.000000174 0.000000161 0.000000192
     107
 0.000000152 0.000000137 0.000000123
     108
 0.000000131 0.000000114 0.000000071
     109
 0.000000109 0.000000093 0.000000033
     110
 0.000000088 0.000000072 0.000000008
     111
 0.000000067 0.000000054-0.000000006
     112
 0.000000049 0.000000038-0.000000011
     113
 0.000000032 0.000000025-0.000000011
     114
 0.000000019 0.000000014-0.000000008
     115
 0.000000008 0.000000006-0.000000004
     116
 0.000000002 0.000000002-0.000000001
     117
 0.000000000 0.000000000 0.000000000
     118
 0.000000003 0.000000003-0.000000002
     119
 0.000000012 0.000000012-0.000000008
     120
 0.000000027 0.000000027-0.000000016
     121
 0.000000046 0.000000046-0.000000024
     122
 0.000000070 0.000000070-0.000000030
     123
 0.000000096 0.000000096-0.000000029
     124
 0.000000124 0.000000124-0.000000019
     125
 0.000000152 0.000000152 0.000000003
     126
 0.000000180 0.000000180 0.000000040
     127
 0.000000205 0.000000205 0.000000093
     128
 0.000000228 0.000000228 0.000000164
     129
 0.000000247 0.000000247 0.000000251
     130
 0.000000262 0.000000262 0.000000352
     131
 0.000000273 0.000000273 0.000000467
     132
 0.000000280 0.000000280 0.000000590
     133
 0.000000282 0.000000282 0.000000717
     134
 0.000000282 0.000000282 0.000000844
     135
 0.000000279 0.000000279 0.000000966
     136
 0.000000274 0.000000274 0.000001078
     137
 0.000000269 0.000000269 0.000001176
     138
 0.000000265 0.000000265 0.000001257
     139
 0.000000261 0.000000261 0.000001318
     140
 0.000000260 0.000000260 0.000001358
     141
 0.000000263 0.000000263 0.000001378
     142
 0.000000269 0.000000269 0.000001377
     143
 0.000000279 0.000000279 0.000001357
     144
 0.000000294 0.000000294 0.000001322
     145
 0.000000312 0.000000312 0.000001274
     146
 0.000000335 0.000000335 0.000001217
     147
 0.000000362 0.000000362 0.000001155
     148
 0.000000391 0.000000391 0.000001092
     149
 0.000000423 0.000000423 0.000001029
     150
 0.000000456 0.000000456 0.000000970
     151
 0.000000489 0.000000489 0.000000916
     152
 0.000000521 0.000000521 0.000000869
     153
 0.000000551 0.000000551 0.000000829
     154
 0.000000578 0.000000578 0.000000797
     155
 0.000000602 0.000000602 0.000000772
     156
 0.000000622 0.000000622 0.000000753
     157
 0.000000636 0.000000636 0.000000741
     158
 0.000000645 0.000000645 0.000000733
     159
 0.000000648 0.000000648 0.000000731
     160
 0.000000650 0.000000650 0.000000731
[...]
       9
 0.000000063-0.000000039 0.000000071
      10
 0.000000078-0.000000042 0.000000093
      11
 0.000000096-0.000000041 0.000000119
      12
 0.000000114-0.000000038 0.000000150
      13
 0.000000134-0.000000030 0.000000185
      14
 0.000000155-0.000000017 0.000000224
      15
 0.000000178 0.000000000 0.000000269
      16
 0.000000201 0.000000023 0.000000318
      17
 0.000000226 0.000000051 0.000000371
      18
 0.000000251 0.000000084 0.000000428
      19
 0.000000278 0.000000123 0.000000489
      20
 0.000000306 0.000000167 0.000000552
      21
 0.000000334 0.000000216 0.000000618
      22
 0.000000363 0.000000269 0.000000686
      23
 0.000000393 0.000000325 0.000000755
      24
 0.000000422 0.000000385 0.000000824
      25
 0.000000452 0.000000446 0.000000893
      26
 0.000000480 0.000000509 0.000000961
      27
 0.000000508 0.000000571 0.000001029
      28
 0.000000534 0.000000632 0.000001094
      29
 0.000000558 0.000000691 0.000001158
      30
 0.000000581 0.000000747 0.000001220
      31
 0.000000601 0.000000797 0.000001278
      32
 0.000000618 0.000000842 0.000001334
      33
 0.000000634 0.000000880 0.000001387
      34
 0.000000912 0.000000647 0.000001437
      35
 0.000000935 0.000000657 0.000001483
      36
 0.000000951 0.000000666 0.000001525
      37
 0.000000959 0.000000673 0.000001564
      38
 0.000000960 0.000000679 0.000001599
      39
 0.000000955 0.000000683 0.000001630
      40
 0.000000944 0.000000686 0.000001658
      41
 0.000000928 0.000000688 0.000001682
      42
 0.000000910 0.000000690 0.000001703
      43
 0.000000890 0.000000691 0.000001720
      44
 0.000000871 0.000000692 0.000001735
      45
 0.000000852 0.000000693 0.000001747
      46
 0.000000837 0.000000693 0.000001755
      47
 0.000000825 0.000000693 0.000001762
      48
 0.000000817 0.000000694 0.000001765
      49
 0.000000814 0.000000694 0.000001767
      50
 0.000000818 0.000000697 0.000001763
      51
 0.000000829 0.000000705 0.000001753
      52
 0.000000847 0.000000719 0.000001735
      53
 0.000000869 0.000000739 0.000001712
      54
 0.000000894 0.000000764 0.000001683
      55
 0.000000920 0.000000795 0.000001650
      56
 0.000000944 0.000000829 0.000001612
      57
 0.000000965 0.000000868 0.000001571
      58
 0.000000980 0.000000909 0.000001528
      59
 0.000000987 0.000000953 0.000001483
      60
 0.000000985 0.000000996 0.000001436
      61
 0.000000974 0.000001039 0.000001389
      62
 0.000000953 0.000001080 0.000001341
      63
 0.000000923 0.000001117 0.000001292
      64
 0.000000885 0.000001150 0.000001241
      65
 0.000000840 0.000001178 0.000001189
      66
 0.000000840 0.000001178 0.000001189
      67
 0.000000794 0.000001202 0.000001135
      68
 0.000000745 0.000001226 0.000001073
      69
 0.000000696 0.000001262 0.000000993
      70
 0.000000649 0.000001334 0.000000870
      71
 0.000000604 0.000001274 0.000000874
      72
 0.000000564 0.000001100 0.000000989
      73
 0.000000529 0.000001003 0.000001023
      74
 0.000000501 0.000000934 0.000001032
      75
 0.000000479 0.000000874 0.000001034
      76
 0.000000465 0.000000820 0.000001036
      77
 0.000000456 0.000000769 0.000001043
      78
 0.000000453 0.000000721 0.000001057
      79
 0.000000454 0.000000677 0.000001079
      80
 0.000000459 0.000000635 0.000001111
      81
 0.000000465 0.000000597 0.000001153
      82
 0.000000473 0.000000562 0.000001205
      83
 0.000000480 0.000000531 0.000001263
      84
 0.000000486 0.000000503 0.000001328
      85
 0.000000489 0.000000479 0.000001395
      86
 0.000000490 0.000000457 0.000001461
      87
 0.000000487 0.000000438 0.000001524
      88
 0.000000481 0.000000422 0.000001578
      89
 0.000000472 0.000000408 0.000001621
      90
 0.000000460 0.000000395 0.000001649
      91
 0.000000445 0.000000385 0.000001658
      92
 0.000000429 0.000000375 0.000001647
      93
 0.000000411 0.000000366 0.000001615
      94
 0.000000392 0.000000358 0.000001560
      95
 0.000000374 0.000000350 0.000001485
      96
 0.000000355 0.000000341 0.000001390
      97
 0.000000337 0.000000330 0.000001278
      98
 0.000000319 0.000000319 0.000001154
      99
 0.000000301 0.000000305 0.000001021
     100
 0.000000284 0.000000289 0.000000884
     101
 0.000000267 0.000000271 0.000000747
     102
 0.000000250 0.000000252 0.000000614
     103
 0.000000232 0.000000231 0.000000489
     104
 0.000000213 0.000000208 0.000000376
     105
 0.000000194 0.000000185 0.000000276
     106
 0.000000174 0.000000161 0.000000192
     107
 0.000000152 0.000000137 0.000000123
     108
 0.000000131 0.000000114 0.000000071
     109
 0.000000109 0.000000093 0.000000033
     110
 0.000000088 0.000000072 0.000000008
     111
 0.000000067 0.000000054-0.000000006
     112
 0.000000049 0.000000038-0.000000011
     113
 0.000000032 0.000000025-0.000000011
     114
 0.000000019 0.000000014-0.000000008
     115
 0.000000008 0.000000006-0.000000004
     116
 0.000000002 0.000000002-0.000000001
     117
 0.000000000 0.000000000 0.000000000
     118
 0.000000003 0.000000003-0.000000002
     119
 0.000000012 0.000000012-0.000000008
     120
 0.000000027 0.000000027-0.000000016
     121
 0.000000046 0.000000046-0.000000024
     122
 0.000000070 0.000000070-0.000000030
     123
 0.000000096 0.000000096-0.000000029
     124
 0.000000124 0.000000124-0.000000019
     125
 0.000000152 0.000000152 0.000000003
     126
 0.000000180 0.000000180 0.000000040
     127
 0.000000205 0.000000205 0.000000093
     128
 0.000000228 0.000000228 0.000000164
     129
 0.000000247 0.000000247 0.000000251
     130
 0.000000262 0.000000262 0.000000352
     131
 0.000000273 0.000000273 0.000000467
     132
 0.000000280 0.000000280 0.000000590
     133
 0.000000282 0.000000282 0.000000717
     134
 0.000000282 0.000000282 0.000000844
     135
 0.000000279 0.000000279 0.000000966
     136
 0.000000274 0.000000274 0.000001078
     137
 0.000000269 0.000000269 0.000001176
     138
 0.000000265 0.000000265 0.000001257
     139
 0.000000261 0.000000261 0.000001318
     140
 0.000000260 0.000000260 0.000001358
     141
 0.000000263 0.000000263 0.000001378
     142
 0.000000269 0.000000269 0.000001377
     143
 0.000000279 0.000000279 0.000001357
     144
 0.000000294 0.000000294 0.000001322
     145
 0.000000312 0.000000312 0.000001274
     146
 0.000000335 0.000000335 0.000001217
     147
 0.000000362 0.000000362 0.000001155
     148
 0.000000391 0.000000391 0.000001092
     149
 0.000000423 0.000000423 0.000001029
     150
 0.000000456 0.000000456 0.000000970
     151
 0.000000489 0.000000489 0.000000916
     152
 0.000000521 0.000000521 0.000000869
     153
 0.000000551 0.000000551 0.000000829
     154
 0.000000578 0.000000578 0.000000797
     155
 0.000000602 0.000000602 0.000000772
     156
 0.000000622 0.000000622 0.000000753
     157
 0.000000636 0.000000636 0.000000741
     158
 0.000000645 0.000000645 0.000000733
     159
 0.000000648 0.000000648 0.000000731
     160
 0.000000650 0.000000650 0.000000731
     161
 0.000000658 0.000000656 0.000000730
     162
 0.000000670 0.000000667 0.000000729
     163
 0.000000684 0.000000682 0.000000728
     164
 0.000000700 0.000000701 0.000000728
     165
 0.000000716 0.000000723 0.000000730
     166
 0.000000730 0.000000749 0.000000733
     167
 0.000000740 0.000000778 0.000000739
     168
 0.000000744 0.000000810 0.000000748
     169
 0.000000741 0.000000844 0.000000760
     170
 0.000000730 0.000000881 0.000000776
     171
 0.000000711 0.000000920 0.000000796
     172
 0.000000685 0.000000961 0.000000819
     173
 0.000000652 0.000001004 0.000000845
     174
 0.000000613 0.000001049 0.000000872
     175
 0.000000572 0.000001096 0.000000902
     176
 0.000000528 0.000001143 0.000000931
     177
 0.000000486 0.000001192 0.000000960
     178
 0.000000448 0.000001243 0.000000987
     179
 0.000000415 0.000001294 0.000001011
     180
 0.000000389 0.000001345 0.000001032
     181
 0.000000373 0.000001396 0.000001049
     182
 0.000000367 0.000001447 0.000001062
     183
 0.000000372 0.000001496 0.000001070
     184
 0.000000386 0.000001544 0.000001074
     185
 0.000000409 0.000001589 0.000001074
     186
 0.000000440 0.000001631 0.000001073
     187
 0.000000475 0.000001668 0.000001072
     188
 0.000000509 0.000001700 0.000001073
     189
 0.000000539 0.000001726 0.000001082
     190
 0.000000558 0.000001745 0.000001102
     191
 0.000000562 0.000001756 0.000001138
     192
 0.000000550 0.000001759 0.000001188
     193
 0.000000531 0.000001753 0.000001243
     194
 0.000000533 0.000001721 0.000001273
     195
 0.000000541 0.000001665 0.000001317
     196
 0.000000558 0.000001613 0.000001348
     197
 0.000000587 0.000001559 0.000001367
     198
 0.000000630 0.000001495 0.000001379
     199
 0.000000682 0.000001422 0.000001390
     200
 0.000000738 0.000001344 0.000001401
     201
 0.000000790 0.000001265 0.000001414
     202
 0.000000840 0.000001184 0.000001430
     203
 0.000000916 0.000001073 0.000001450
     204
 0.000001253 0.000000695 0.000001473
     205
 0.000001191 0.000000713 0.000001500
     206
 0.000001106 0.000000751 0.000001530
     207
 0.000001049 0.000000758 0.000001562
     208
 0.000001003 0.000000754 0.000001595
     209
 0.000000962 0.000000746 0.000001628
     210
 0.000000926 0.000000735 0.000001660
     211
 0.000000893 0.000000724 0.000001690
     212
 0.000000866 0.000000714 0.000001716
     213
 0.000000844 0.000000706 0.000001737
     214
 0.000000828 0.000000699 0.000001753
     215
 0.000000818 0.000000695 0.000001763
     216
 0.000000814 0.000000694 0.000001767
Norm of the difference between old and new effective charges:    0.00000000000000000000
Norm of the difference between old and new force-constants:   0.00445717074314676016
 Broadening   0.0000
       1
 0.000000000 0.000000000 0.000000000
       2
 0.000000001-0.000000001 0.000000001
       3
 0.000000004-0.000000004 0.000000004
       4
 0.000000009-0.000000009 0.000000009
       5
 0.000000016-0.000000015 0.000000016
       6
 0.000000025-0.000000021 0.000000025
       7
 0.000000036-0.000000028 0.000000037
       8
 0.000000048-0.000000034 0.000000052
       9
 0.000000063-0.000000039 0.000000071
      10
 0.000000078-0.000000042 0.000000093
      11
 0.000000096-0.000000041 0.000000119
      12
 0.000000114-0.000000038 0.000000150
      13
 0.000000134-0.000000030 0.000000185
      14
 0.000000155-0.000000017 0.000000224
      15
 0.000000178 0.000000000 0.000000269
      16
 0.000000201 0.000000023 0.000000318
      17
 0.000000226 0.000000051 0.000000371
      18
 0.000000251 0.000000084 0.000000428
      19
 0.000000278 0.000000123 0.000000489
      20
 0.000000306 0.000000167 0.000000552
      21
 0.000000334 0.000000216 0.000000618
      22
 0.000000363 0.000000269 0.000000686
      23
 0.000000393 0.000000325 0.000000755
      24
 0.000000422 0.000000385 0.000000824
      25
 0.000000452 0.000000446 0.000000893
      26
 0.000000480 0.000000509 0.000000961
      27
 0.000000508 0.000000571 0.000001029
      28
 0.000000534 0.000000632 0.000001094
      29
 0.000000558 0.000000691 0.000001158
      30
 0.000000581 0.000000747 0.000001220
      31
 0.000000601 0.000000797 0.000001278
      32
 0.000000618 0.000000842 0.000001334
      33
 0.000000634 0.000000880 0.000001387
      34
 0.000000912 0.000000647 0.000001437
      35
 0.000000935 0.000000657 0.000001483
      36
 0.000000951 0.000000666 0.000001525
      37
 0.000000959 0.000000673 0.000001564
      38
 0.000000960 0.000000679 0.000001599
      39
 0.000000955 0.000000683 0.000001630
      40
 0.000000944 0.000000686 0.000001658
      41
 0.000000928 0.000000688 0.000001682
      42
 0.000000910 0.000000690 0.000001703
      43
 0.000000890 0.000000691 0.000001720
      44
 0.000000871 0.000000692 0.000001735
      45
 0.000000852 0.000000693 0.000001747
      46
 0.000000837 0.000000693 0.000001755
      47
 0.000000825 0.000000693 0.000001762
      48
 0.000000817 0.000000694 0.000001765
      49
 0.000000814 0.000000694 0.000001767
      50
 0.000000818 0.000000697 0.000001763
      51
 0.000000829 0.000000705 0.000001753
      52
 0.000000847 0.000000719 0.000001735
      53
 0.000000869 0.000000739 0.000001712
      54
 0.000000894 0.000000764 0.000001683
      55
 0.000000920 0.000000795 0.000001650
      56
 0.000000944 0.000000829 0.000001612
      57
 0.000000965 0.000000868 0.000001571
      58
 0.000000980 0.000000909 0.000001528
      59
 0.000000987 0.000000953 0.000001483
      60
 0.000000985 0.000000996 0.000001436
      61
 0.000000974 0.000001039 0.000001389
      62
 0.000000953 0.000001080 0.000001341
      63
 0.000000923 0.000001117 0.000001292
      64
 0.000000885 0.000001150 0.000001241
      65
 0.000000840 0.000001178 0.000001189
      66
 0.000000840 0.000001178 0.000001189
      67
 0.000000794 0.000001202 0.000001135
      68
 0.000000745 0.000001226 0.000001073
      69
 0.000000696 0.000001262 0.000000993
      70
 0.000000649 0.000001334 0.000000870
      71
 0.000000604 0.000001274 0.000000874
      72
 0.000000564 0.000001100 0.000000989
      73
 0.000000529 0.000001003 0.000001023
      74
 0.000000501 0.000000934 0.000001032
      75
 0.000000479 0.000000874 0.000001034
      76
 0.000000465 0.000000820 0.000001036
      77
 0.000000456 0.000000769 0.000001043
      78
 0.000000453 0.000000721 0.000001057
      79
 0.000000454 0.000000677 0.000001079
      80
 0.000000459 0.000000635 0.000001111
      81
 0.000000465 0.000000597 0.000001153
      82
 0.000000473 0.000000562 0.000001205
      83
 0.000000480 0.000000531 0.000001263
      84
 0.000000486 0.000000503 0.000001328
      85
 0.000000489 0.000000479 0.000001395
      86
 0.000000490 0.000000457 0.000001461
      87
 0.000000487 0.000000438 0.000001524
      88
 0.000000481 0.000000422 0.000001578
      89
 0.000000472 0.000000408 0.000001621
      90
 0.000000460 0.000000395 0.000001649
      91
 0.000000445 0.000000385 0.000001658
      92
 0.000000429 0.000000375 0.000001647
      93
 0.000000411 0.000000366 0.000001615
      94
 0.000000392 0.000000358 0.000001560
      95
 0.000000374 0.000000350 0.000001485
      96
 0.000000355 0.000000341 0.000001390
      97
 0.000000337 0.000000330 0.000001278
      98
 0.000000319 0.000000319 0.000001154
      99
 0.000000301 0.000000305 0.000001021
     100
 0.000000284 0.000000289 0.000000884
     101
 0.000000267 0.000000271 0.000000747
     102
 0.000000250 0.000000252 0.000000614
     103
 0.000000232 0.000000231 0.000000489
     104
 0.000000213 0.000000208 0.000000376
     105
 0.000000194 0.000000185 0.000000276
     106
 0.000000174 0.000000161 0.000000192
     107
 0.000000152 0.000000137 0.000000123
     108
 0.000000131 0.000000114 0.000000071
     109
 0.000000109 0.000000093 0.000000033
     110
 0.000000088 0.000000072 0.000000008
     111
 0.000000067 0.000000054-0.000000006
     112
 0.000000049 0.000000038-0.000000011
     113
 0.000000032 0.000000025-0.000000011
     114
 0.000000019 0.000000014-0.000000008
     115
 0.000000008 0.000000006-0.000000004
     116
 0.000000002 0.000000002-0.000000001
     117
 0.000000000 0.000000000 0.000000000
     118
 0.000000003 0.000000003-0.000000002
     119
 0.000000012 0.000000012-0.000000008
     120
 0.000000027 0.000000027-0.000000016
     121
 0.000000046 0.000000046-0.000000024
     122
 0.000000070 0.000000070-0.000000030
     123
 0.000000096 0.000000096-0.000000029
     124
 0.000000124 0.000000124-0.000000019
     125
 0.000000152 0.000000152 0.000000003
     126
 0.000000180 0.000000180 0.000000040
     127
 0.000000205 0.000000205 0.000000093
     128
 0.000000228 0.000000228 0.000000164
     129
 0.000000247 0.000000247 0.000000251
     130
 0.000000262 0.000000262 0.000000352
     131
 0.000000273 0.000000273 0.000000467
     132
 0.000000280 0.000000280 0.000000590
     133
 0.000000282 0.000000282 0.000000717
     134
 0.000000282 0.000000282 0.000000844
     135
 0.000000279 0.000000279 0.000000966
     136
 0.000000274 0.000000274 0.000001078
     137
 0.000000269 0.000000269 0.000001176
     138
 0.000000265 0.000000265 0.000001257
     139
 0.000000261 0.000000261 0.000001318
     140
 0.000000260 0.000000260 0.000001358
     141
 0.000000263 0.000000263 0.000001378
     142
 0.000000269 0.000000269 0.000001377
     143
 0.000000279 0.000000279 0.000001357
     144
 0.000000294 0.000000294 0.000001322
     145
 0.000000312 0.000000312 0.000001274
     146
 0.000000335 0.000000335 0.000001217
     147
 0.000000362 0.000000362 0.000001155
     148
 0.000000391 0.000000391 0.000001092
     149
 0.000000423 0.000000423 0.000001029
     150
 0.000000456 0.000000456 0.000000970
     151
 0.000000489 0.000000489 0.000000916
     152
 0.000000521 0.000000521 0.000000869
     153
 0.000000551 0.000000551 0.000000829
     154
 0.000000578 0.000000578 0.000000797
     155
 0.000000602 0.000000602 0.000000772
     156
 0.000000622 0.000000622 0.000000753
     157
 0.000000636 0.000000636 0.000000741
     158
 0.000000645 0.000000645 0.000000733
     159
 0.000000648 0.000000648 0.000000731
     160
 0.000000650 0.000000650 0.000000731
     161
 0.000000658 0.000000656 0.000000730
     162
 0.000000670 0.000000667 0.000000729
     163
 0.000000684 0.000000682 0.000000728
     164
 0.000000700 0.000000701 0.000000728
     165
 0.000000716 0.000000723 0.000000730
     166
 0.000000730 0.000000749 0.000000733
     167
 0.000000740 0.000000778 0.000000739
     168
 0.000000744 0.000000810 0.000000748
     169
 0.000000741 0.000000844 0.000000760
     170
 0.000000730 0.000000881 0.000000776
     171
 0.000000711 0.000000920 0.000000796
     172
 0.000000685 0.000000961 0.000000819
     173
 0.000000652 0.000001004 0.000000845
     174
 0.000000613 0.000001049 0.000000872
     175
 0.000000572 0.000001096 0.000000902
     176
 0.000000528 0.000001143 0.000000931
     177
 0.000000486 0.000001192 0.000000960
     178
 0.000000448 0.000001243 0.000000987
     179
 0.000000415 0.000001294 0.000001011
     180
 0.000000389 0.000001345 0.000001032
     181
 0.000000373 0.000001396 0.000001049
     182
 0.000000367 0.000001447 0.000001062
     183
 0.000000372 0.000001496 0.000001070
     184
 0.000000386 0.000001544 0.000001074
     185
 0.000000409 0.000001589 0.000001074
     186
 0.000000440 0.000001631 0.000001073
     187
 0.000000475 0.000001668 0.000001072
     188
 0.000000509 0.000001700 0.000001073
     189
 0.000000539 0.000001726 0.000001082
     190
 0.000000558 0.000001745 0.000001102
     191
 0.000000562 0.000001756 0.000001138
     192
 0.000000550 0.000001759 0.000001188
     193
 0.000000531 0.000001753 0.000001243
     194
 0.000000533 0.000001721 0.000001273
     195
 0.000000541 0.000001665 0.000001317
     196
 0.000000558 0.000001613 0.000001348
     197
 0.000000587 0.000001559 0.000001367
     198
 0.000000630 0.000001495 0.000001379
     199
 0.000000682 0.000001422 0.000001390
     200
 0.000000738 0.000001344 0.000001401
     201
 0.000000790 0.000001265 0.000001414
     202
 0.000000840 0.000001184 0.000001430
     203
 0.000000916 0.000001073 0.000001450
     204
 0.000001253 0.000000695 0.000001473
     205
 0.000001191 0.000000713 0.000001500
     206
 0.000001106 0.000000751 0.000001530
     207
 0.000001049 0.000000758 0.000001562
     208
 0.000001003 0.000000754 0.000001595
     209
 0.000000962 0.000000746 0.000001628
     210
 0.000000926 0.000000735 0.000001660
     211
 0.000000893 0.000000724 0.000001690
     212
 0.000000866 0.000000714 0.000001716
     213
 0.000000844 0.000000706 0.000001737
     214
 0.000000828 0.000000699 0.000001753
     215
 0.000000818 0.000000695 0.000001763
     216
 0.000000814 0.000000694 0.000001767
 
     MATDYN       :      0.23s CPU      8.85s WALL

 
   This run was terminated on:  21: 0:57  29Nov2023            

=------------------------------------------------------------------------------=
   JOB DONE.
=------------------------------------------------------------------------------=
