
     Program PHONON v.6.7GPU starts on 29Nov2023 at 16:40:36 

     This program is part of the open-source Quantum ESPRESSO suite
     for quantum simulation of materials; please cite
         "P. Giannozzi et al., J. Phys.:Condens. Matter 21 395502 (2009);
         "P. Giannozzi et al., J. Phys.:Condens. Matter 29 465901 (2017);
         "P. Giannozzi et al., J. Chem. Phys. 152 154105 (2020);
          URL http://www.quantum-espresso.org", 
     in publications or presentations arising from this work. More details at
     http://www.quantum-espresso.org/quote

     Parallel version (MPI & OpenMP), running on    1024 processor cores
     Number of MPI processes:              1024
     Threads/MPI process:                     1

     MPI processes distributed on     8 nodes
     K-points division:     npool     =     128
     R & G space division:  proc/nbgrp/npool/nimage =       8
     Waiting for input...
     Reading input from standard input

     Reading xml data from directory:

     ./pwscf.save/

     IMPORTANT: XC functional enforced from input :
     Exchange-correlation= PBE
                           (   1   4   3   4   0   0   0)
     Any further DFT definition will be discarded
     Please, verify this is what you really want

 
     Parallelization info
     --------------------
     sticks:   dense  smooth     PW     G-vecs:    dense   smooth      PW
     Min          54      54     18                  747      747     142
     Max          55      55     20                  750      750     143
     Sum         433     433    151                 5985     5985    1139
 
     Using Slab Decomposition
 
     Message from routine divide_et_impera:
     suboptimal parallelization: some nodes have no k-points
     Reading collected, re-writing distributed wavefunctions


     Dynamical matrices for ( 6, 6, 6)  uniform grid of q-points
     With a half shift
     (  28 q-points):
       N         xq(1)         xq(2)         xq(3) 
       1  -0.083333333   0.083333333   0.083333333
       2  -0.250000000   0.250000000  -0.083333333
       3  -0.416666667   0.416666667  -0.250000000
       4   0.416666667  -0.416666667   0.583333333
       5   0.250000000  -0.250000000   0.416666667
       6   0.083333333  -0.083333333   0.250000000
       7  -0.083333333   0.416666667   0.083333333
       8  -0.250000000   0.583333333  -0.083333333
       9   0.583333333  -0.250000000   0.750000000
      10   0.416666667  -0.083333333   0.583333333
      11   0.250000000   0.083333333   0.416666667
      12  -0.083333333   0.750000000   0.083333333
      13   0.750000000  -0.083333333   0.916666667
      14   0.583333333   0.083333333   0.750000000
      15   0.416666667   0.250000000   0.583333333
      16  -0.083333333  -0.916666667   0.083333333
      17  -0.250000000  -0.750000000  -0.083333333
      18  -0.083333333  -0.583333333   0.083333333
      19  -0.250000000   0.250000000   0.250000000
      20  -0.416666667   0.416666667   0.083333333
      21   0.416666667  -0.416666667   0.916666667
      22   0.250000000  -0.250000000   0.750000000
      23  -0.250000000   0.583333333   0.250000000
      24   0.583333333  -0.250000000   1.083333333
      25   0.416666667  -0.083333333   0.916666667
      26  -0.250000000  -1.083333333   0.250000000
      27  -0.416666667   0.416666667   0.416666667
      28   0.416666667  -0.416666667   1.250000000
     Because shifted q grid is used, q2r will not work !

     Saving dvscf to file. Distribute only q points, not irreducible represetations.

     Calculation of q =   -0.0833333   0.0833333   0.0833333

     Subspace diagonalization in iterative solution of the eigenvalue problem:
     a serial algorithm will be used

     [opt_tetra]  Optimized tetrahedron method is used.
 
     Parallelization info
     --------------------
     sticks:   dense  smooth     PW     G-vecs:    dense   smooth      PW
     Min          54      54     18                  747      747     153
     Max          55      55     19                  750      750     156
     Sum         433     433    151                 5985     5985    1243
 
     Using Slab Decomposition
 

     Title: 
     Electron-phonon matrix                                                     


     bravais-lattice index     =            2
     lattice parameter (alat)  =       9.5194  a.u.
     unit-cell volume          =     215.6591 (a.u.)^3
     number of atoms/cell      =            1
     number of atomic types    =            1
     number of electrons       =        14.00
     number of Kohn-Sham states=           11
     kinetic-energy cutoff     =      35.0000  Ry
     charge density cutoff     =     140.0000  Ry
     Exchange-correlation= PBE
                           (   1   4   3   4   0   0   0)

     celldm(1)=   9.519393  celldm(2)=   0.000000  celldm(3)=   0.000000
     celldm(4)=   0.000000  celldm(5)=   0.000000  celldm(6)=   0.000000

     crystal axes: (cart. coord. in units of alat)
               a(1) = (  -0.500000   0.000000   0.500000 )  
               a(2) = (   0.000000   0.500000   0.500000 )  
               a(3) = (  -0.500000   0.500000   0.000000 )  

     reciprocal axes: (cart. coord. in units 2 pi/alat)
               b(1) = ( -1.000000 -1.000000  1.000000 )  
               b(2) = (  1.000000  1.000000  1.000000 )  
               b(3) = ( -1.000000  1.000000 -1.000000 )  


     PseudoPot. # 1 for Pb read from file:
     ./Pb_ONCV_PBE-1.2.upf
     MD5 check sum: 7f27c247474026287e0dbe0f3167d60b
     Pseudo is Norm-conserving, Zval = 14.0
     Generated using ONCVPSP code by D. R. Hamann
     Using radial grid of  602 points,  8 beta functions with: 
                l(1) =   0
                l(2) =   0
                l(3) =   1
                l(4) =   1
                l(5) =   2
                l(6) =   2
                l(7) =   3
                l(8) =   3

     atomic species   valence    mass     pseudopotential
        Pb            14.00   207.20000     Pb( 1.00)

     48 Sym. Ops., with inversion, found



   Cartesian axes

     site n.     atom                  positions (alat units)
         1           Pb  tau(   1) = (   0.0000000   0.0000000   0.0000000  )

     number of k points=  5200 (tetrahedron method)

     Number of k-points >= 100: set verbosity='high' to print them.

     Dense  grid:     5985 G-vectors     FFT dimensions: (  25,  25,  25)

     Estimated max dynamical RAM per process >       2.85 MB

     Estimated total dynamical RAM >       2.85 GB

     The potential is recalculated from file :
     ./_ph0/pwscf.q_1/pwscf.save/charge-density

     Starting wfcs are    0 atomic +   11 random wfcs

     Band Structure Calculation
     Davidson diagonalization with overlap

     ethr =  7.14E-11,  avg # of iterations = 21.1

     total cpu time spent up to now is       13.7 secs

     End of band structure calculation

     Number of k-points >= 100: set verbosity='high' to print the bands.

     the Fermi energy is    11.5418 ev

     Writing output data file ./_ph0/pwscf.q_1/pwscf.save/
 
     [dfpt_tetra]  Dos(E_F)[/Ry] :   0.7160190E+01

     Electron-phonon matrix                                                     

     bravais-lattice index     =            2
     lattice parameter (alat)  =       9.5194  a.u.
     unit-cell volume          =     215.6591 (a.u.)^3
     number of atoms/cell      =            1
     number of atomic types    =            1
     kinetic-energy cut-off    =      35.0000  Ry
     charge density cut-off    =     140.0000  Ry
     convergence threshold     =      1.0E-12
     beta                      =       0.7000
     number of iterations used =            4
     Exchange-correlation= PBE
                           (   1   4   3   4   0   0   0)


     celldm(1)=    9.51939  celldm(2)=    0.00000  celldm(3)=    0.00000
     celldm(4)=    0.00000  celldm(5)=    0.00000  celldm(6)=    0.00000

     crystal axes: (cart. coord. in units of alat)
               a(1) = ( -0.5000  0.0000  0.5000 )  
               a(2) = (  0.0000  0.5000  0.5000 )  
               a(3) = ( -0.5000  0.5000  0.0000 )  

     reciprocal axes: (cart. coord. in units 2 pi/alat)
               b(1) = ( -1.0000 -1.0000  1.0000 )  
               b(2) = (  1.0000  1.0000  1.0000 )  
               b(3) = ( -1.0000  1.0000 -1.0000 )  


     Atoms inside the unit cell: 

     Cartesian axes

     site n.  atom      mass           positions (alat units)
        1     Pb 207.2000   tau(    1) = (    0.00000    0.00000    0.00000  )

     Computing dynamical matrix for 
                    q = (  -0.0833333   0.0833333   0.0833333 )
 
      6 Sym.Ops. (no q -> -q+G )


     G cutoff =  321.3563  (    748 G-vectors)     FFT grid: ( 25, 25, 25)
     number of k points=  5200

     PseudoPot. # 1 for Pb read from file:
     ./Pb_ONCV_PBE-1.2.upf
     MD5 check sum: 7f27c247474026287e0dbe0f3167d60b
     Pseudo is Norm-conserving, Zval = 14.0
     Generated using ONCVPSP code by D. R. Hamann
     Using radial grid of  602 points,  8 beta functions with: 
                l(1) =   0
                l(2) =   0
                l(3) =   1
                l(4) =   1
                l(5) =   2
                l(6) =   2
                l(7) =   3
                l(8) =   3


     Atomic displacements:
     There are    2 irreducible representations

     Representation     1      1 modes -  To be done

     Representation     2      2 modes -  To be done


     PHONON       :     14.42s CPU     22.04s WALL

     Reading dVscf from file dv
     Reading dynamics matrix from file matdyn1

     Diagonalizing the dynamical matrix

     q = (   -0.083333333   0.083333333   0.083333333 ) 

 **************************************************************************
     freq (    1) =       0.534214 [THz] =      17.819466 [cm-1]
     freq (    2) =       0.534214 [THz] =      17.819466 [cm-1]
     freq (    3) =       0.819238 [THz] =      27.326836 [cm-1]
 **************************************************************************

     [elph_tetra]   Lowest band which contains FS :          7
     [elph_tetra]  Highest band which contains FS :          8
     [elph_tetra]    # of bands which contains FS :          2
 
     Tetrahedron method
     DOS =  3.580095 states/spin/Ry/Unit Cell at Ef= 11.541775 eV
     double delta at Ef = 29.778820
     lambda(    1)=  0.0767   gamma=    0.07 GHz
     lambda(    2)=  0.0767   gamma=    0.07 GHz
     lambda(    3)=  0.1720   gamma=    0.39 GHz
 
     Number of q in the star =    8
     List of q in the star:
          1  -0.083333333   0.083333333   0.083333333
          2   0.083333333   0.083333333   0.083333333
          3  -0.083333333  -0.083333333   0.083333333
          4   0.083333333  -0.083333333  -0.083333333
          5  -0.083333333   0.083333333  -0.083333333
          6   0.083333333   0.083333333  -0.083333333
          7   0.083333333  -0.083333333   0.083333333
          8  -0.083333333  -0.083333333  -0.083333333

     Calculation of q =   -0.2500000   0.2500000  -0.0833333
     [opt_tetra]  Optimized tetrahedron method is used.
 
     Parallelization info
     --------------------
     sticks:   dense  smooth     PW     G-vecs:    dense   smooth      PW
     Min          54      54     18                  747      747     153
     Max          55      55     19                  750      750     156
     Sum         433     433    151                 5985     5985    1243
 
     Using Slab Decomposition
 

     Title: 
     Electron-phonon matrix                                                     


     bravais-lattice index     =            2
     lattice parameter (alat)  =       9.5194  a.u.
     unit-cell volume          =     215.6591 (a.u.)^3
     number of atoms/cell      =            1
     number of atomic types    =            1
     number of electrons       =        14.00
     number of Kohn-Sham states=           11
     kinetic-energy cutoff     =      35.0000  Ry
     charge density cutoff     =     140.0000  Ry
     Exchange-correlation= PBE
                           (   1   4   3   4   0   0   0)

     celldm(1)=   9.519393  celldm(2)=   0.000000  celldm(3)=   0.000000
     celldm(4)=   0.000000  celldm(5)=   0.000000  celldm(6)=   0.000000

     crystal axes: (cart. coord. in units of alat)
               a(1) = (  -0.500000   0.000000   0.500000 )  
               a(2) = (   0.000000   0.500000   0.500000 )  
               a(3) = (  -0.500000   0.500000   0.000000 )  

     reciprocal axes: (cart. coord. in units 2 pi/alat)
               b(1) = ( -1.000000 -1.000000  1.000000 )  
               b(2) = (  1.000000  1.000000  1.000000 )  
               b(3) = ( -1.000000  1.000000 -1.000000 )  


     PseudoPot. # 1 for Pb read from file:
     ./Pb_ONCV_PBE-1.2.upf
     MD5 check sum: 7f27c247474026287e0dbe0f3167d60b
     Pseudo is Norm-conserving, Zval = 14.0
     Generated using ONCVPSP code by D. R. Hamann
     Using radial grid of  602 points,  8 beta functions with: 
                l(1) =   0
                l(2) =   0
                l(3) =   1
                l(4) =   1
                l(5) =   2
                l(6) =   2
                l(7) =   3
                l(8) =   3

     atomic species   valence    mass     pseudopotential
        Pb            14.00   207.20000     Pb( 1.00)

     48 Sym. Ops., with inversion, found



   Cartesian axes

     site n.     atom                  positions (alat units)
         1           Pb  tau(   1) = (   0.0000000   0.0000000   0.0000000  )

     number of k points= 14400 (tetrahedron method)

     Number of k-points >= 100: set verbosity='high' to print them.

     Dense  grid:     5985 G-vectors     FFT dimensions: (  25,  25,  25)

     Estimated max dynamical RAM per process >       2.88 MB

     Estimated total dynamical RAM >       2.88 GB

     The potential is recalculated from file :
     ./_ph0/pwscf.q_2/pwscf.save/charge-density

     Starting wfcs are    0 atomic +   11 random wfcs

     Band Structure Calculation
     Davidson diagonalization with overlap

     ethr =  7.14E-11,  avg # of iterations = 20.9

     total cpu time spent up to now is       29.6 secs

     End of band structure calculation

     Number of k-points >= 100: set verbosity='high' to print the bands.

     the Fermi energy is    11.5418 ev

     Writing output data file ./_ph0/pwscf.q_2/pwscf.save/
 
     [dfpt_tetra]  Dos(E_F)[/Ry] :   0.7160190E+01

     Electron-phonon matrix                                                     

     bravais-lattice index     =            2
     lattice parameter (alat)  =       9.5194  a.u.
     unit-cell volume          =     215.6591 (a.u.)^3
     number of atoms/cell      =            1
     number of atomic types    =            1
     kinetic-energy cut-off    =      35.0000  Ry
     charge density cut-off    =     140.0000  Ry
     convergence threshold     =      1.0E-12
     beta                      =       0.7000
     number of iterations used =            4
     Exchange-correlation= PBE
                           (   1   4   3   4   0   0   0)


     celldm(1)=    9.51939  celldm(2)=    0.00000  celldm(3)=    0.00000
     celldm(4)=    0.00000  celldm(5)=    0.00000  celldm(6)=    0.00000

     crystal axes: (cart. coord. in units of alat)
               a(1) = ( -0.5000  0.0000  0.5000 )  
               a(2) = (  0.0000  0.5000  0.5000 )  
               a(3) = ( -0.5000  0.5000  0.0000 )  

     reciprocal axes: (cart. coord. in units 2 pi/alat)
               b(1) = ( -1.0000 -1.0000  1.0000 )  
               b(2) = (  1.0000  1.0000  1.0000 )  
               b(3) = ( -1.0000  1.0000 -1.0000 )  


     Atoms inside the unit cell: 

     Cartesian axes

     site n.  atom      mass           positions (alat units)
        1     Pb 207.2000   tau(    1) = (    0.00000    0.00000    0.00000  )

     Computing dynamical matrix for 
                    q = (  -0.2500000   0.2500000  -0.0833333 )
 
      2 Sym.Ops. (no q -> -q+G )


     G cutoff =  321.3563  (    748 G-vectors)     FFT grid: ( 25, 25, 25)
     number of k points= 14400

     PseudoPot. # 1 for Pb read from file:
     ./Pb_ONCV_PBE-1.2.upf
     MD5 check sum: 7f27c247474026287e0dbe0f3167d60b
     Pseudo is Norm-conserving, Zval = 14.0
     Generated using ONCVPSP code by D. R. Hamann
     Using radial grid of  602 points,  8 beta functions with: 
                l(1) =   0
                l(2) =   0
                l(3) =   1
                l(4) =   1
                l(5) =   2
                l(6) =   2
                l(7) =   3
                l(8) =   3


     Atomic displacements:
     There are    3 irreducible representations

     Representation     1      1 modes -  To be done

     Representation     2      1 modes -  To be done

     Representation     3      1 modes -  To be done


     PHONON       :     37.67s CPU     48.62s WALL

     Reading dVscf from file dv
     Reading dynamics matrix from file matdyn2

     Diagonalizing the dynamical matrix

     q = (   -0.250000000   0.250000000  -0.083333333 ) 

 **************************************************************************
     freq (    1) =       0.723598 [THz] =      24.136622 [cm-1]
     freq (    2) =       0.917940 [THz] =      30.619171 [cm-1]
     freq (    3) =       1.533544 [THz] =      51.153508 [cm-1]
 **************************************************************************

     [elph_tetra]   Lowest band which contains FS :          7
     [elph_tetra]  Highest band which contains FS :          8
     [elph_tetra]    # of bands which contains FS :          2
 
     Tetrahedron method
     DOS =  3.580095 states/spin/Ry/Unit Cell at Ef= 11.541775 eV
     double delta at Ef = 27.853410
     lambda(    1)=  0.4310   gamma=    0.77 GHz
     lambda(    2)=  0.2700   gamma=    0.78 GHz
     lambda(    3)=  0.1256   gamma=    1.01 GHz
 
     Number of q in the star =   24
     List of q in the star:
          1  -0.250000000   0.250000000  -0.083333333
          2   0.083333333   0.250000000   0.250000000
          3  -0.250000000  -0.083333333   0.250000000
          4   0.250000000   0.250000000  -0.083333333
          5  -0.250000000  -0.250000000  -0.083333333
          6  -0.083333333  -0.250000000  -0.250000000
          7   0.083333333  -0.250000000   0.250000000
          8  -0.083333333   0.250000000   0.250000000
          9   0.083333333   0.250000000  -0.250000000
         10   0.250000000  -0.083333333   0.250000000
         11   0.250000000   0.083333333  -0.250000000
         12  -0.250000000  -0.083333333  -0.250000000
         13  -0.250000000   0.083333333   0.250000000
         14   0.250000000  -0.083333333  -0.250000000
         15   0.250000000  -0.250000000  -0.083333333
         16   0.250000000   0.083333333   0.250000000
         17  -0.250000000   0.083333333  -0.250000000
         18  -0.083333333  -0.250000000   0.250000000
         19  -0.083333333   0.250000000  -0.250000000
         20   0.250000000   0.250000000   0.083333333
         21   0.083333333  -0.250000000  -0.250000000
         22   0.250000000  -0.250000000   0.083333333
         23  -0.250000000   0.250000000   0.083333333
         24  -0.250000000  -0.250000000   0.083333333

     Calculation of q =   -0.4166667   0.4166667  -0.2500000
     [opt_tetra]  Optimized tetrahedron method is used.
 
     Parallelization info
     --------------------
     sticks:   dense  smooth     PW     G-vecs:    dense   smooth      PW
     Min          54      54     20                  747      747     170
     Max          55      55     21                  750      750     172
     Sum         433     433    163                 5985     5985    1363
 
     Using Slab Decomposition
 

     Title: 
     Electron-phonon matrix                                                     


     bravais-lattice index     =            2
     lattice parameter (alat)  =       9.5194  a.u.
     unit-cell volume          =     215.6591 (a.u.)^3
     number of atoms/cell      =            1
     number of atomic types    =            1
     number of electrons       =        14.00
     number of Kohn-Sham states=           11
     kinetic-energy cutoff     =      35.0000  Ry
     charge density cutoff     =     140.0000  Ry
     Exchange-correlation= PBE
                           (   1   4   3   4   0   0   0)

     celldm(1)=   9.519393  celldm(2)=   0.000000  celldm(3)=   0.000000
     celldm(4)=   0.000000  celldm(5)=   0.000000  celldm(6)=   0.000000

     crystal axes: (cart. coord. in units of alat)
               a(1) = (  -0.500000   0.000000   0.500000 )  
               a(2) = (   0.000000   0.500000   0.500000 )  
               a(3) = (  -0.500000   0.500000   0.000000 )  

     reciprocal axes: (cart. coord. in units 2 pi/alat)
               b(1) = ( -1.000000 -1.000000  1.000000 )  
               b(2) = (  1.000000  1.000000  1.000000 )  
               b(3) = ( -1.000000  1.000000 -1.000000 )  


     PseudoPot. # 1 for Pb read from file:
     ./Pb_ONCV_PBE-1.2.upf
     MD5 check sum: 7f27c247474026287e0dbe0f3167d60b
     Pseudo is Norm-conserving, Zval = 14.0
     Generated using ONCVPSP code by D. R. Hamann
     Using radial grid of  602 points,  8 beta functions with: 
                l(1) =   0
                l(2) =   0
                l(3) =   1
                l(4) =   1
                l(5) =   2
                l(6) =   2
                l(7) =   3
                l(8) =   3

     atomic species   valence    mass     pseudopotential
        Pb            14.00   207.20000     Pb( 1.00)

     48 Sym. Ops., with inversion, found



   Cartesian axes

     site n.     atom                  positions (alat units)
         1           Pb  tau(   1) = (   0.0000000   0.0000000   0.0000000  )

     number of k points= 14400 (tetrahedron method)

     Number of k-points >= 100: set verbosity='high' to print them.

     Dense  grid:     5985 G-vectors     FFT dimensions: (  25,  25,  25)

     Estimated max dynamical RAM per process >       2.92 MB

     Estimated total dynamical RAM >       2.92 GB

     The potential is recalculated from file :
     ./_ph0/pwscf.q_3/pwscf.save/charge-density

     Starting wfcs are    0 atomic +   11 random wfcs

     Band Structure Calculation
     Davidson diagonalization with overlap

     ethr =  7.14E-11,  avg # of iterations = 20.9

     total cpu time spent up to now is       48.0 secs

     End of band structure calculation

     Number of k-points >= 100: set verbosity='high' to print the bands.

     the Fermi energy is    11.5418 ev

     Writing output data file ./_ph0/pwscf.q_3/pwscf.save/
 
     [dfpt_tetra]  Dos(E_F)[/Ry] :   0.7160190E+01

     Electron-phonon matrix                                                     

     bravais-lattice index     =            2
     lattice parameter (alat)  =       9.5194  a.u.
     unit-cell volume          =     215.6591 (a.u.)^3
     number of atoms/cell      =            1
     number of atomic types    =            1
     kinetic-energy cut-off    =      35.0000  Ry
     charge density cut-off    =     140.0000  Ry
     convergence threshold     =      1.0E-12
     beta                      =       0.7000
     number of iterations used =            4
     Exchange-correlation= PBE
                           (   1   4   3   4   0   0   0)


     celldm(1)=    9.51939  celldm(2)=    0.00000  celldm(3)=    0.00000
     celldm(4)=    0.00000  celldm(5)=    0.00000  celldm(6)=    0.00000

     crystal axes: (cart. coord. in units of alat)
               a(1) = ( -0.5000  0.0000  0.5000 )  
               a(2) = (  0.0000  0.5000  0.5000 )  
               a(3) = ( -0.5000  0.5000  0.0000 )  

     reciprocal axes: (cart. coord. in units 2 pi/alat)
               b(1) = ( -1.0000 -1.0000  1.0000 )  
               b(2) = (  1.0000  1.0000  1.0000 )  
               b(3) = ( -1.0000  1.0000 -1.0000 )  


     Atoms inside the unit cell: 

     Cartesian axes

     site n.  atom      mass           positions (alat units)
        1     Pb 207.2000   tau(    1) = (    0.00000    0.00000    0.00000  )

     Computing dynamical matrix for 
                    q = (  -0.4166667   0.4166667  -0.2500000 )
 
      2 Sym.Ops. (no q -> -q+G )


     G cutoff =  321.3563  (    749 G-vectors)     FFT grid: ( 25, 25, 25)
     number of k points= 14400

     PseudoPot. # 1 for Pb read from file:
     ./Pb_ONCV_PBE-1.2.upf
     MD5 check sum: 7f27c247474026287e0dbe0f3167d60b
     Pseudo is Norm-conserving, Zval = 14.0
     Generated using ONCVPSP code by D. R. Hamann
     Using radial grid of  602 points,  8 beta functions with: 
                l(1) =   0
                l(2) =   0
                l(3) =   1
                l(4) =   1
                l(5) =   2
                l(6) =   2
                l(7) =   3
                l(8) =   3


     Atomic displacements:
     There are    3 irreducible representations

     Representation     1      1 modes -  To be done

     Representation     2      1 modes -  To be done

     Representation     3      1 modes -  To be done


     PHONON       :     58.34s CPU   1m13.88s WALL

     Reading dVscf from file dv
     Reading dynamics matrix from file matdyn3

     Diagonalizing the dynamical matrix

     q = (   -0.416666667   0.416666667  -0.250000000 ) 

 **************************************************************************
     freq (    1) =       1.031188 [THz] =      34.396739 [cm-1]
     freq (    2) =       1.038096 [THz] =      34.627159 [cm-1]
     freq (    3) =       1.885061 [THz] =      62.878863 [cm-1]
 **************************************************************************

     [elph_tetra]   Lowest band which contains FS :          7
     [elph_tetra]  Highest band which contains FS :          8
     [elph_tetra]    # of bands which contains FS :          2
 
     Tetrahedron method
     DOS =  3.580095 states/spin/Ry/Unit Cell at Ef= 11.541775 eV
     double delta at Ef = 31.020171
     lambda(    1)=  0.3589   gamma=    1.30 GHz
     lambda(    2)=  0.7016   gamma=    2.58 GHz
     lambda(    3)=  0.3943   gamma=    4.79 GHz
 
     Number of q in the star =   24
     List of q in the star:
          1  -0.416666667   0.416666667  -0.250000000
          2   0.250000000   0.416666667   0.416666667
          3  -0.416666667  -0.250000000   0.416666667
          4   0.416666667   0.416666667  -0.250000000
          5  -0.416666667  -0.416666667  -0.250000000
          6  -0.250000000  -0.416666667  -0.416666667
          7   0.250000000  -0.416666667   0.416666667
          8  -0.250000000   0.416666667   0.416666667
          9   0.250000000   0.416666667  -0.416666667
         10   0.416666667  -0.250000000   0.416666667
         11   0.416666667   0.250000000  -0.416666667
         12  -0.416666667  -0.250000000  -0.416666667
         13  -0.416666667   0.250000000   0.416666667
         14   0.416666667  -0.250000000  -0.416666667
         15   0.416666667  -0.416666667  -0.250000000
         16   0.416666667   0.250000000   0.416666667
         17  -0.416666667   0.250000000  -0.416666667
         18  -0.250000000  -0.416666667   0.416666667
         19  -0.250000000   0.416666667  -0.416666667
         20   0.416666667   0.416666667   0.250000000
         21   0.250000000  -0.416666667  -0.416666667
         22   0.416666667  -0.416666667   0.250000000
         23  -0.416666667   0.416666667   0.250000000
         24  -0.416666667  -0.416666667   0.250000000

     Calculation of q =    0.4166667  -0.4166667   0.5833333
     [opt_tetra]  Optimized tetrahedron method is used.
 
     Parallelization info
     --------------------
     sticks:   dense  smooth     PW     G-vecs:    dense   smooth      PW
     Min          54      54     20                  747      747     181
     Max          55      55     21                  750      750     185
     Sum         433     433    163                 5985     5985    1459
 
     Using Slab Decomposition
 

     Title: 
     Electron-phonon matrix                                                     


     bravais-lattice index     =            2
     lattice parameter (alat)  =       9.5194  a.u.
     unit-cell volume          =     215.6591 (a.u.)^3
     number of atoms/cell      =            1
     number of atomic types    =            1
     number of electrons       =        14.00
     number of Kohn-Sham states=           11
     kinetic-energy cutoff     =      35.0000  Ry
     charge density cutoff     =     140.0000  Ry
     Exchange-correlation= PBE
                           (   1   4   3   4   0   0   0)

     celldm(1)=   9.519393  celldm(2)=   0.000000  celldm(3)=   0.000000
     celldm(4)=   0.000000  celldm(5)=   0.000000  celldm(6)=   0.000000

     crystal axes: (cart. coord. in units of alat)
               a(1) = (  -0.500000   0.000000   0.500000 )  
               a(2) = (   0.000000   0.500000   0.500000 )  
               a(3) = (  -0.500000   0.500000   0.000000 )  

     reciprocal axes: (cart. coord. in units 2 pi/alat)
               b(1) = ( -1.000000 -1.000000  1.000000 )  
               b(2) = (  1.000000  1.000000  1.000000 )  
               b(3) = ( -1.000000  1.000000 -1.000000 )  


     PseudoPot. # 1 for Pb read from file:
     ./Pb_ONCV_PBE-1.2.upf
     MD5 check sum: 7f27c247474026287e0dbe0f3167d60b
     Pseudo is Norm-conserving, Zval = 14.0
     Generated using ONCVPSP code by D. R. Hamann
     Using radial grid of  602 points,  8 beta functions with: 
                l(1) =   0
                l(2) =   0
                l(3) =   1
                l(4) =   1
                l(5) =   2
                l(6) =   2
                l(7) =   3
                l(8) =   3

     atomic species   valence    mass     pseudopotential
        Pb            14.00   207.20000     Pb( 1.00)

     48 Sym. Ops., with inversion, found



   Cartesian axes

     site n.     atom                  positions (alat units)
         1           Pb  tau(   1) = (   0.0000000   0.0000000   0.0000000  )

     number of k points= 14400 (tetrahedron method)

     Number of k-points >= 100: set verbosity='high' to print them.

     Dense  grid:     5985 G-vectors     FFT dimensions: (  25,  25,  25)

     Estimated max dynamical RAM per process >       2.94 MB

     Estimated total dynamical RAM >       2.94 GB

     The potential is recalculated from file :
     ./_ph0/pwscf.q_4/pwscf.save/charge-density

     Starting wfcs are    0 atomic +   11 random wfcs

     Band Structure Calculation
     Davidson diagonalization with overlap

     ethr =  7.14E-11,  avg # of iterations = 20.9

     total cpu time spent up to now is       64.2 secs

     End of band structure calculation

     Number of k-points >= 100: set verbosity='high' to print the bands.

     the Fermi energy is    11.5418 ev

     Writing output data file ./_ph0/pwscf.q_4/pwscf.save/
 
     [dfpt_tetra]  Dos(E_F)[/Ry] :   0.7160190E+01

     Electron-phonon matrix                                                     

     bravais-lattice index     =            2
     lattice parameter (alat)  =       9.5194  a.u.
     unit-cell volume          =     215.6591 (a.u.)^3
     number of atoms/cell      =            1
     number of atomic types    =            1
     kinetic-energy cut-off    =      35.0000  Ry
     charge density cut-off    =     140.0000  Ry
     convergence threshold     =      1.0E-12
     beta                      =       0.7000
     number of iterations used =            4
     Exchange-correlation= PBE
                           (   1   4   3   4   0   0   0)


     celldm(1)=    9.51939  celldm(2)=    0.00000  celldm(3)=    0.00000
     celldm(4)=    0.00000  celldm(5)=    0.00000  celldm(6)=    0.00000

     crystal axes: (cart. coord. in units of alat)
               a(1) = ( -0.5000  0.0000  0.5000 )  
               a(2) = (  0.0000  0.5000  0.5000 )  
               a(3) = ( -0.5000  0.5000  0.0000 )  

     reciprocal axes: (cart. coord. in units 2 pi/alat)
               b(1) = ( -1.0000 -1.0000  1.0000 )  
               b(2) = (  1.0000  1.0000  1.0000 )  
               b(3) = ( -1.0000  1.0000 -1.0000 )  


     Atoms inside the unit cell: 

     Cartesian axes

     site n.  atom      mass           positions (alat units)
        1     Pb 207.2000   tau(    1) = (    0.00000    0.00000    0.00000  )

     Computing dynamical matrix for 
                    q = (   0.4166667  -0.4166667   0.5833333 )
 
      2 Sym.Ops. (no q -> -q+G )


     G cutoff =  321.3563  (    749 G-vectors)     FFT grid: ( 25, 25, 25)
     number of k points= 14400

     PseudoPot. # 1 for Pb read from file:
     ./Pb_ONCV_PBE-1.2.upf
     MD5 check sum: 7f27c247474026287e0dbe0f3167d60b
     Pseudo is Norm-conserving, Zval = 14.0
     Generated using ONCVPSP code by D. R. Hamann
     Using radial grid of  602 points,  8 beta functions with: 
                l(1) =   0
                l(2) =   0
                l(3) =   1
                l(4) =   1
                l(5) =   2
                l(6) =   2
                l(7) =   3
                l(8) =   3


     Atomic displacements:
     There are    3 irreducible representations

     Representation     1      1 modes -  To be done

     Representation     2      1 modes -  To be done

     Representation     3      1 modes -  To be done


     PHONON       :   1m18.97s CPU   1m37.08s WALL

     Reading dVscf from file dv
     Reading dynamics matrix from file matdyn4

     Diagonalizing the dynamical matrix

     q = (    0.416666667  -0.416666667   0.583333333 ) 

 **************************************************************************
     freq (    1) =       1.090153 [THz] =      36.363598 [cm-1]
     freq (    2) =       1.156231 [THz] =      38.567729 [cm-1]
     freq (    3) =       2.059098 [THz] =      68.684102 [cm-1]
 **************************************************************************

     [elph_tetra]   Lowest band which contains FS :          7
     [elph_tetra]  Highest band which contains FS :          8
     [elph_tetra]    # of bands which contains FS :          2
 
     Tetrahedron method
     DOS =  3.580095 states/spin/Ry/Unit Cell at Ef= 11.541775 eV
     double delta at Ef = 26.859002
     lambda(    1)=  0.3411   gamma=    1.39 GHz
     lambda(    2)=  0.4451   gamma=    2.03 GHz
     lambda(    3)=  0.2587   gamma=    3.75 GHz
 
     Number of q in the star =   24
     List of q in the star:
          1   0.416666667  -0.416666667   0.583333333
          2  -0.583333333  -0.416666667  -0.416666667
          3   0.416666667   0.583333333  -0.416666667
          4  -0.416666667  -0.416666667   0.583333333
          5   0.416666667   0.416666667   0.583333333
          6   0.583333333   0.416666667   0.416666667
          7  -0.583333333   0.416666667  -0.416666667
          8   0.583333333  -0.416666667  -0.416666667
          9  -0.583333333  -0.416666667   0.416666667
         10  -0.416666667   0.583333333  -0.416666667
         11  -0.416666667  -0.583333333   0.416666667
         12   0.416666667   0.583333333   0.416666667
         13   0.416666667  -0.583333333  -0.416666667
         14  -0.416666667   0.583333333   0.416666667
         15  -0.416666667   0.416666667   0.583333333
         16  -0.416666667  -0.583333333  -0.416666667
         17   0.416666667  -0.583333333   0.416666667
         18   0.583333333   0.416666667  -0.416666667
         19   0.583333333  -0.416666667   0.416666667
         20  -0.416666667  -0.416666667  -0.583333333
         21  -0.583333333   0.416666667   0.416666667
         22  -0.416666667   0.416666667  -0.583333333
         23   0.416666667  -0.416666667  -0.583333333
         24   0.416666667   0.416666667  -0.583333333

     Calculation of q =    0.2500000  -0.2500000   0.4166667
     [opt_tetra]  Optimized tetrahedron method is used.
 
     Parallelization info
     --------------------
     sticks:   dense  smooth     PW     G-vecs:    dense   smooth      PW
     Min          54      54     20                  747      747     170
     Max          55      55     21                  750      750     172
     Sum         433     433    163                 5985     5985    1363
 
     Using Slab Decomposition
 

     Title: 
     Electron-phonon matrix                                                     


     bravais-lattice index     =            2
     lattice parameter (alat)  =       9.5194  a.u.
     unit-cell volume          =     215.6591 (a.u.)^3
     number of atoms/cell      =            1
     number of atomic types    =            1
     number of electrons       =        14.00
     number of Kohn-Sham states=           11
     kinetic-energy cutoff     =      35.0000  Ry
     charge density cutoff     =     140.0000  Ry
     Exchange-correlation= PBE
                           (   1   4   3   4   0   0   0)

     celldm(1)=   9.519393  celldm(2)=   0.000000  celldm(3)=   0.000000
     celldm(4)=   0.000000  celldm(5)=   0.000000  celldm(6)=   0.000000

     crystal axes: (cart. coord. in units of alat)
               a(1) = (  -0.500000   0.000000   0.500000 )  
               a(2) = (   0.000000   0.500000   0.500000 )  
               a(3) = (  -0.500000   0.500000   0.000000 )  

     reciprocal axes: (cart. coord. in units 2 pi/alat)
               b(1) = ( -1.000000 -1.000000  1.000000 )  
               b(2) = (  1.000000  1.000000  1.000000 )  
               b(3) = ( -1.000000  1.000000 -1.000000 )  


     PseudoPot. # 1 for Pb read from file:
     ./Pb_ONCV_PBE-1.2.upf
     MD5 check sum: 7f27c247474026287e0dbe0f3167d60b
     Pseudo is Norm-conserving, Zval = 14.0
     Generated using ONCVPSP code by D. R. Hamann
     Using radial grid of  602 points,  8 beta functions with: 
                l(1) =   0
                l(2) =   0
                l(3) =   1
                l(4) =   1
                l(5) =   2
                l(6) =   2
                l(7) =   3
                l(8) =   3

     atomic species   valence    mass     pseudopotential
        Pb            14.00   207.20000     Pb( 1.00)

     48 Sym. Ops., with inversion, found



   Cartesian axes

     site n.     atom                  positions (alat units)
         1           Pb  tau(   1) = (   0.0000000   0.0000000   0.0000000  )

     number of k points= 14400 (tetrahedron method)

     Number of k-points >= 100: set verbosity='high' to print them.

     Dense  grid:     5985 G-vectors     FFT dimensions: (  25,  25,  25)

     Estimated max dynamical RAM per process >       2.90 MB

     Estimated total dynamical RAM >       2.90 GB

     The potential is recalculated from file :
     ./_ph0/pwscf.q_5/pwscf.save/charge-density

     Starting wfcs are    0 atomic +   11 random wfcs

     Band Structure Calculation
     Davidson diagonalization with overlap

     ethr =  7.14E-11,  avg # of iterations = 20.9

     total cpu time spent up to now is       87.3 secs

     End of band structure calculation

     Number of k-points >= 100: set verbosity='high' to print the bands.

     the Fermi energy is    11.5418 ev

     Writing output data file ./_ph0/pwscf.q_5/pwscf.save/
 
     [dfpt_tetra]  Dos(E_F)[/Ry] :   0.7160190E+01

     Electron-phonon matrix                                                     

     bravais-lattice index     =            2
     lattice parameter (alat)  =       9.5194  a.u.
     unit-cell volume          =     215.6591 (a.u.)^3
     number of atoms/cell      =            1
     number of atomic types    =            1
     kinetic-energy cut-off    =      35.0000  Ry
     charge density cut-off    =     140.0000  Ry
     convergence threshold     =      1.0E-12
     beta                      =       0.7000
     number of iterations used =            4
     Exchange-correlation= PBE
                           (   1   4   3   4   0   0   0)


     celldm(1)=    9.51939  celldm(2)=    0.00000  celldm(3)=    0.00000
     celldm(4)=    0.00000  celldm(5)=    0.00000  celldm(6)=    0.00000

     crystal axes: (cart. coord. in units of alat)
               a(1) = ( -0.5000  0.0000  0.5000 )  
               a(2) = (  0.0000  0.5000  0.5000 )  
               a(3) = ( -0.5000  0.5000  0.0000 )  

     reciprocal axes: (cart. coord. in units 2 pi/alat)
               b(1) = ( -1.0000 -1.0000  1.0000 )  
               b(2) = (  1.0000  1.0000  1.0000 )  
               b(3) = ( -1.0000  1.0000 -1.0000 )  


     Atoms inside the unit cell: 

     Cartesian axes

     site n.  atom      mass           positions (alat units)
        1     Pb 207.2000   tau(    1) = (    0.00000    0.00000    0.00000  )

     Computing dynamical matrix for 
                    q = (   0.2500000  -0.2500000   0.4166667 )
 
      2 Sym.Ops. (no q -> -q+G )


     G cutoff =  321.3563  (    749 G-vectors)     FFT grid: ( 25, 25, 25)
     number of k points= 14400

     PseudoPot. # 1 for Pb read from file:
     ./Pb_ONCV_PBE-1.2.upf
     MD5 check sum: 7f27c247474026287e0dbe0f3167d60b
     Pseudo is Norm-conserving, Zval = 14.0
     Generated using ONCVPSP code by D. R. Hamann
     Using radial grid of  602 points,  8 beta functions with: 
                l(1) =   0
                l(2) =   0
                l(3) =   1
                l(4) =   1
                l(5) =   2
                l(6) =   2
                l(7) =   3
                l(8) =   3


     Atomic displacements:
     There are    3 irreducible representations

     Representation     1      1 modes -  To be done

     Representation     2      1 modes -  To be done

     Representation     3      1 modes -  To be done


     PHONON       :   1m46.43s CPU   2m 7.61s WALL

     Reading dVscf from file dv
     Reading dynamics matrix from file matdyn5

     Diagonalizing the dynamical matrix

     q = (    0.250000000  -0.250000000   0.416666667 ) 

 **************************************************************************
     freq (    1) =       0.996012 [THz] =      33.223380 [cm-1]
     freq (    2) =       1.019606 [THz] =      34.010409 [cm-1]
     freq (    3) =       1.822594 [THz] =      60.795191 [cm-1]
 **************************************************************************

     [elph_tetra]   Lowest band which contains FS :          7
     [elph_tetra]  Highest band which contains FS :          8
     [elph_tetra]    # of bands which contains FS :          2
 
     Tetrahedron method
     DOS =  3.580095 states/spin/Ry/Unit Cell at Ef= 11.541775 eV
     double delta at Ef = 25.103763
     lambda(    1)=  0.4736   gamma=    1.61 GHz
     lambda(    2)=  0.2260   gamma=    0.80 GHz
     lambda(    3)=  0.3363   gamma=    3.82 GHz
 
     Number of q in the star =   24
     List of q in the star:
          1   0.250000000  -0.250000000   0.416666667
          2  -0.416666667  -0.250000000  -0.250000000
          3   0.250000000   0.416666667  -0.250000000
          4  -0.250000000  -0.250000000   0.416666667
          5   0.250000000   0.250000000   0.416666667
          6   0.416666667   0.250000000   0.250000000
          7  -0.416666667   0.250000000  -0.250000000
          8   0.416666667  -0.250000000  -0.250000000
          9  -0.416666667  -0.250000000   0.250000000
         10  -0.250000000   0.416666667  -0.250000000
         11  -0.250000000  -0.416666667   0.250000000
         12   0.250000000   0.416666667   0.250000000
         13   0.250000000  -0.416666667  -0.250000000
         14  -0.250000000   0.416666667   0.250000000
         15  -0.250000000   0.250000000   0.416666667
         16  -0.250000000  -0.416666667  -0.250000000
         17   0.250000000  -0.416666667   0.250000000
         18   0.416666667   0.250000000  -0.250000000
         19   0.416666667  -0.250000000   0.250000000
         20  -0.250000000  -0.250000000  -0.416666667
         21  -0.416666667   0.250000000   0.250000000
         22  -0.250000000   0.250000000  -0.416666667
         23   0.250000000  -0.250000000  -0.416666667
         24   0.250000000   0.250000000  -0.416666667

     Calculation of q =    0.0833333  -0.0833333   0.2500000
     [opt_tetra]  Optimized tetrahedron method is used.
 
     Parallelization info
     --------------------
     sticks:   dense  smooth     PW     G-vecs:    dense   smooth      PW
     Min          54      54     18                  747      747     153
     Max          55      55     19                  750      750     156
     Sum         433     433    151                 5985     5985    1243
 
     Using Slab Decomposition
 

     Title: 
     Electron-phonon matrix                                                     


     bravais-lattice index     =            2
     lattice parameter (alat)  =       9.5194  a.u.
     unit-cell volume          =     215.6591 (a.u.)^3
     number of atoms/cell      =            1
     number of atomic types    =            1
     number of electrons       =        14.00
     number of Kohn-Sham states=           11
     kinetic-energy cutoff     =      35.0000  Ry
     charge density cutoff     =     140.0000  Ry
     Exchange-correlation= PBE
                           (   1   4   3   4   0   0   0)

     celldm(1)=   9.519393  celldm(2)=   0.000000  celldm(3)=   0.000000
     celldm(4)=   0.000000  celldm(5)=   0.000000  celldm(6)=   0.000000

     crystal axes: (cart. coord. in units of alat)
               a(1) = (  -0.500000   0.000000   0.500000 )  
               a(2) = (   0.000000   0.500000   0.500000 )  
               a(3) = (  -0.500000   0.500000   0.000000 )  

     reciprocal axes: (cart. coord. in units 2 pi/alat)
               b(1) = ( -1.000000 -1.000000  1.000000 )  
               b(2) = (  1.000000  1.000000  1.000000 )  
               b(3) = ( -1.000000  1.000000 -1.000000 )  


     PseudoPot. # 1 for Pb read from file:
     ./Pb_ONCV_PBE-1.2.upf
     MD5 check sum: 7f27c247474026287e0dbe0f3167d60b
     Pseudo is Norm-conserving, Zval = 14.0
     Generated using ONCVPSP code by D. R. Hamann
     Using radial grid of  602 points,  8 beta functions with: 
                l(1) =   0
                l(2) =   0
                l(3) =   1
                l(4) =   1
                l(5) =   2
                l(6) =   2
                l(7) =   3
                l(8) =   3

     atomic species   valence    mass     pseudopotential
        Pb            14.00   207.20000     Pb( 1.00)

     48 Sym. Ops., with inversion, found



   Cartesian axes

     site n.     atom                  positions (alat units)
         1           Pb  tau(   1) = (   0.0000000   0.0000000   0.0000000  )

     number of k points= 14400 (tetrahedron method)

     Number of k-points >= 100: set verbosity='high' to print them.

     Dense  grid:     5985 G-vectors     FFT dimensions: (  25,  25,  25)

     Estimated max dynamical RAM per process >       2.87 MB

     Estimated total dynamical RAM >       2.87 GB

     The potential is recalculated from file :
     ./_ph0/pwscf.q_6/pwscf.save/charge-density

     Starting wfcs are    0 atomic +   11 random wfcs

     Band Structure Calculation
     Davidson diagonalization with overlap

     ethr =  7.14E-11,  avg # of iterations = 20.9

     total cpu time spent up to now is      108.3 secs

     End of band structure calculation

     Number of k-points >= 100: set verbosity='high' to print the bands.

     the Fermi energy is    11.5418 ev

     Writing output data file ./_ph0/pwscf.q_6/pwscf.save/
 
     [dfpt_tetra]  Dos(E_F)[/Ry] :   0.7160190E+01

     Electron-phonon matrix                                                     

     bravais-lattice index     =            2
     lattice parameter (alat)  =       9.5194  a.u.
     unit-cell volume          =     215.6591 (a.u.)^3
     number of atoms/cell      =            1
     number of atomic types    =            1
     kinetic-energy cut-off    =      35.0000  Ry
     charge density cut-off    =     140.0000  Ry
     convergence threshold     =      1.0E-12
     beta                      =       0.7000
     number of iterations used =            4
     Exchange-correlation= PBE
                           (   1   4   3   4   0   0   0)


     celldm(1)=    9.51939  celldm(2)=    0.00000  celldm(3)=    0.00000
     celldm(4)=    0.00000  celldm(5)=    0.00000  celldm(6)=    0.00000

     crystal axes: (cart. coord. in units of alat)
               a(1) = ( -0.5000  0.0000  0.5000 )  
               a(2) = (  0.0000  0.5000  0.5000 )  
               a(3) = ( -0.5000  0.5000  0.0000 )  

     reciprocal axes: (cart. coord. in units 2 pi/alat)
               b(1) = ( -1.0000 -1.0000  1.0000 )  
               b(2) = (  1.0000  1.0000  1.0000 )  
               b(3) = ( -1.0000  1.0000 -1.0000 )  


     Atoms inside the unit cell: 

     Cartesian axes

     site n.  atom      mass           positions (alat units)
        1     Pb 207.2000   tau(    1) = (    0.00000    0.00000    0.00000  )

     Computing dynamical matrix for 
                    q = (   0.0833333  -0.0833333   0.2500000 )
 
      2 Sym.Ops. (no q -> -q+G )


     G cutoff =  321.3563  (    748 G-vectors)     FFT grid: ( 25, 25, 25)
     number of k points= 14400

     PseudoPot. # 1 for Pb read from file:
     ./Pb_ONCV_PBE-1.2.upf
     MD5 check sum: 7f27c247474026287e0dbe0f3167d60b
     Pseudo is Norm-conserving, Zval = 14.0
     Generated using ONCVPSP code by D. R. Hamann
     Using radial grid of  602 points,  8 beta functions with: 
                l(1) =   0
                l(2) =   0
                l(3) =   1
                l(4) =   1
                l(5) =   2
                l(6) =   2
                l(7) =   3
                l(8) =   3


     Atomic displacements:
     There are    3 irreducible representations

     Representation     1      1 modes -  To be done

     Representation     2      1 modes -  To be done

     Representation     3      1 modes -  To be done


     PHONON       :   2m12.65s CPU   2m37.07s WALL

     Reading dVscf from file dv
     Reading dynamics matrix from file matdyn6

     Diagonalizing the dynamical matrix

     q = (    0.083333333  -0.083333333   0.250000000 ) 

 **************************************************************************
     freq (    1) =       0.725113 [THz] =      24.187159 [cm-1]
     freq (    2) =       0.767982 [THz] =      25.617111 [cm-1]
     freq (    3) =       1.253209 [THz] =      41.802539 [cm-1]
 **************************************************************************

     [elph_tetra]   Lowest band which contains FS :          7
     [elph_tetra]  Highest band which contains FS :          8
     [elph_tetra]    # of bands which contains FS :          2
 
     Tetrahedron method
     DOS =  3.580095 states/spin/Ry/Unit Cell at Ef= 11.541775 eV
     double delta at Ef = 25.830320
     lambda(    1)=  0.4991   gamma=    0.90 GHz
     lambda(    2)=  0.1553   gamma=    0.31 GHz
     lambda(    3)=  0.1680   gamma=    0.90 GHz
 
     Number of q in the star =   24
     List of q in the star:
          1   0.083333333  -0.083333333   0.250000000
          2  -0.250000000  -0.083333333  -0.083333333
          3   0.083333333   0.250000000  -0.083333333
          4  -0.083333333  -0.083333333   0.250000000
          5   0.083333333   0.083333333   0.250000000
          6   0.250000000   0.083333333   0.083333333
          7  -0.250000000   0.083333333  -0.083333333
          8   0.250000000  -0.083333333  -0.083333333
          9  -0.250000000  -0.083333333   0.083333333
         10  -0.083333333   0.250000000  -0.083333333
         11  -0.083333333  -0.250000000   0.083333333
         12   0.083333333   0.250000000   0.083333333
         13   0.083333333  -0.250000000  -0.083333333
         14  -0.083333333   0.250000000   0.083333333
         15  -0.083333333   0.083333333   0.250000000
         16  -0.083333333  -0.250000000  -0.083333333
         17   0.083333333  -0.250000000   0.083333333
         18   0.250000000   0.083333333  -0.083333333
         19   0.250000000  -0.083333333   0.083333333
         20  -0.083333333  -0.083333333  -0.250000000
         21  -0.250000000   0.083333333   0.083333333
         22  -0.083333333   0.083333333  -0.250000000
         23   0.083333333  -0.083333333  -0.250000000
         24   0.083333333   0.083333333  -0.250000000

     Calculation of q =   -0.0833333   0.4166667   0.0833333
     [opt_tetra]  Optimized tetrahedron method is used.
 
     Parallelization info
     --------------------
     sticks:   dense  smooth     PW     G-vecs:    dense   smooth      PW
     Min          54      54     18                  747      747     153
     Max          55      55     19                  750      750     156
     Sum         433     433    151                 5985     5985    1243
 
     Using Slab Decomposition
 

     Title: 
     Electron-phonon matrix                                                     


     bravais-lattice index     =            2
     lattice parameter (alat)  =       9.5194  a.u.
     unit-cell volume          =     215.6591 (a.u.)^3
     number of atoms/cell      =            1
     number of atomic types    =            1
     number of electrons       =        14.00
     number of Kohn-Sham states=           11
     kinetic-energy cutoff     =      35.0000  Ry
     charge density cutoff     =     140.0000  Ry
     Exchange-correlation= PBE
                           (   1   4   3   4   0   0   0)

     celldm(1)=   9.519393  celldm(2)=   0.000000  celldm(3)=   0.000000
     celldm(4)=   0.000000  celldm(5)=   0.000000  celldm(6)=   0.000000

     crystal axes: (cart. coord. in units of alat)
               a(1) = (  -0.500000   0.000000   0.500000 )  
               a(2) = (   0.000000   0.500000   0.500000 )  
               a(3) = (  -0.500000   0.500000   0.000000 )  

     reciprocal axes: (cart. coord. in units 2 pi/alat)
               b(1) = ( -1.000000 -1.000000  1.000000 )  
               b(2) = (  1.000000  1.000000  1.000000 )  
               b(3) = ( -1.000000  1.000000 -1.000000 )  


     PseudoPot. # 1 for Pb read from file:
     ./Pb_ONCV_PBE-1.2.upf
     MD5 check sum: 7f27c247474026287e0dbe0f3167d60b
     Pseudo is Norm-conserving, Zval = 14.0
     Generated using ONCVPSP code by D. R. Hamann
     Using radial grid of  602 points,  8 beta functions with: 
                l(1) =   0
                l(2) =   0
                l(3) =   1
                l(4) =   1
                l(5) =   2
                l(6) =   2
                l(7) =   3
                l(8) =   3

     atomic species   valence    mass     pseudopotential
        Pb            14.00   207.20000     Pb( 1.00)

     48 Sym. Ops., with inversion, found



   Cartesian axes

     site n.     atom                  positions (alat units)
         1           Pb  tau(   1) = (   0.0000000   0.0000000   0.0000000  )

     number of k points= 14400 (tetrahedron method)

     Number of k-points >= 100: set verbosity='high' to print them.

     Dense  grid:     5985 G-vectors     FFT dimensions: (  25,  25,  25)

     Estimated max dynamical RAM per process >       2.89 MB

     Estimated total dynamical RAM >       2.89 GB

     The potential is recalculated from file :
     ./_ph0/pwscf.q_7/pwscf.save/charge-density

     Starting wfcs are    0 atomic +   11 random wfcs

     Band Structure Calculation
     Davidson diagonalization with overlap

     ethr =  7.14E-11,  avg # of iterations = 20.9

     total cpu time spent up to now is      123.8 secs

     End of band structure calculation

     Number of k-points >= 100: set verbosity='high' to print the bands.

     the Fermi energy is    11.5418 ev

     Writing output data file ./_ph0/pwscf.q_7/pwscf.save/
 
     [dfpt_tetra]  Dos(E_F)[/Ry] :   0.7160190E+01

     Electron-phonon matrix                                                     

     bravais-lattice index     =            2
     lattice parameter (alat)  =       9.5194  a.u.
     unit-cell volume          =     215.6591 (a.u.)^3
     number of atoms/cell      =            1
     number of atomic types    =            1
     kinetic-energy cut-off    =      35.0000  Ry
     charge density cut-off    =     140.0000  Ry
     convergence threshold     =      1.0E-12
     beta                      =       0.7000
     number of iterations used =            4
     Exchange-correlation= PBE
                           (   1   4   3   4   0   0   0)


     celldm(1)=    9.51939  celldm(2)=    0.00000  celldm(3)=    0.00000
     celldm(4)=    0.00000  celldm(5)=    0.00000  celldm(6)=    0.00000

     crystal axes: (cart. coord. in units of alat)
               a(1) = ( -0.5000  0.0000  0.5000 )  
               a(2) = (  0.0000  0.5000  0.5000 )  
               a(3) = ( -0.5000  0.5000  0.0000 )  

     reciprocal axes: (cart. coord. in units 2 pi/alat)
               b(1) = ( -1.0000 -1.0000  1.0000 )  
               b(2) = (  1.0000  1.0000  1.0000 )  
               b(3) = ( -1.0000  1.0000 -1.0000 )  


     Atoms inside the unit cell: 

     Cartesian axes

     site n.  atom      mass           positions (alat units)
        1     Pb 207.2000   tau(    1) = (    0.00000    0.00000    0.00000  )

     Computing dynamical matrix for 
                    q = (  -0.0833333   0.4166667   0.0833333 )
 
      2 Sym.Ops. (no q -> -q+G )


     G cutoff =  321.3563  (    748 G-vectors)     FFT grid: ( 25, 25, 25)
     number of k points= 14400

     PseudoPot. # 1 for Pb read from file:
     ./Pb_ONCV_PBE-1.2.upf
     MD5 check sum: 7f27c247474026287e0dbe0f3167d60b
     Pseudo is Norm-conserving, Zval = 14.0
     Generated using ONCVPSP code by D. R. Hamann
     Using radial grid of  602 points,  8 beta functions with: 
                l(1) =   0
                l(2) =   0
                l(3) =   1
                l(4) =   1
                l(5) =   2
                l(6) =   2
                l(7) =   3
                l(8) =   3


     Atomic displacements:
     There are    3 irreducible representations

     Representation     1      1 modes -  To be done

     Representation     2      1 modes -  To be done

     Representation     3      1 modes -  To be done


     PHONON       :   2m31.92s CPU   2m58.72s WALL

     Reading dVscf from file dv
     Reading dynamics matrix from file matdyn7

     Diagonalizing the dynamical matrix

     q = (   -0.083333333   0.416666667   0.083333333 ) 

 **************************************************************************
     freq (    1) =       1.006938 [THz] =      33.587835 [cm-1]
     freq (    2) =       1.025760 [THz] =      34.215662 [cm-1]
     freq (    3) =       1.668187 [THz] =      55.644741 [cm-1]
 **************************************************************************

     [elph_tetra]   Lowest band which contains FS :          7
     [elph_tetra]  Highest band which contains FS :          8
     [elph_tetra]    # of bands which contains FS :          2
 
     Tetrahedron method
     DOS =  3.580095 states/spin/Ry/Unit Cell at Ef= 11.541775 eV
     double delta at Ef = 34.762850
     lambda(    1)=  0.2754   gamma=    0.95 GHz
     lambda(    2)=  0.5764   gamma=    2.07 GHz
     lambda(    3)=  0.3823   gamma=    3.64 GHz
 
     Number of q in the star =   24
     List of q in the star:
          1  -0.083333333   0.416666667   0.083333333
          2  -0.083333333   0.083333333   0.416666667
          3  -0.416666667   0.083333333   0.083333333
          4   0.416666667   0.083333333   0.083333333
          5  -0.416666667  -0.083333333   0.083333333
          6   0.083333333  -0.416666667  -0.083333333
          7  -0.083333333  -0.416666667   0.083333333
          8   0.083333333   0.416666667   0.083333333
          9  -0.083333333   0.416666667  -0.083333333
         10   0.083333333   0.083333333   0.416666667
         11   0.083333333  -0.083333333  -0.416666667
         12  -0.083333333   0.083333333  -0.416666667
         13  -0.083333333  -0.083333333   0.416666667
         14   0.416666667   0.083333333  -0.083333333
         15   0.083333333  -0.416666667   0.083333333
         16   0.416666667  -0.083333333   0.083333333
         17  -0.416666667  -0.083333333  -0.083333333
         18   0.083333333  -0.083333333   0.416666667
         19   0.083333333   0.083333333  -0.416666667
         20   0.083333333   0.416666667  -0.083333333
         21  -0.083333333  -0.083333333  -0.416666667
         22  -0.083333333  -0.416666667  -0.083333333
         23   0.416666667  -0.083333333  -0.083333333
         24  -0.416666667   0.083333333  -0.083333333

     Calculation of q =   -0.2500000   0.5833333  -0.0833333
     [opt_tetra]  Optimized tetrahedron method is used.
 
     Parallelization info
     --------------------
     sticks:   dense  smooth     PW     G-vecs:    dense   smooth      PW
     Min          54      54     20                  747      747     170
     Max          55      55     21                  750      750     172
     Sum         433     433    163                 5985     5985    1363
 
     Using Slab Decomposition
 

     Title: 
     Electron-phonon matrix                                                     


     bravais-lattice index     =            2
     lattice parameter (alat)  =       9.5194  a.u.
     unit-cell volume          =     215.6591 (a.u.)^3
     number of atoms/cell      =            1
     number of atomic types    =            1
     number of electrons       =        14.00
     number of Kohn-Sham states=           11
     kinetic-energy cutoff     =      35.0000  Ry
     charge density cutoff     =     140.0000  Ry
     Exchange-correlation= PBE
                           (   1   4   3   4   0   0   0)

     celldm(1)=   9.519393  celldm(2)=   0.000000  celldm(3)=   0.000000
     celldm(4)=   0.000000  celldm(5)=   0.000000  celldm(6)=   0.000000

     crystal axes: (cart. coord. in units of alat)
               a(1) = (  -0.500000   0.000000   0.500000 )  
               a(2) = (   0.000000   0.500000   0.500000 )  
               a(3) = (  -0.500000   0.500000   0.000000 )  

     reciprocal axes: (cart. coord. in units 2 pi/alat)
               b(1) = ( -1.000000 -1.000000  1.000000 )  
               b(2) = (  1.000000  1.000000  1.000000 )  
               b(3) = ( -1.000000  1.000000 -1.000000 )  


     PseudoPot. # 1 for Pb read from file:
     ./Pb_ONCV_PBE-1.2.upf
     MD5 check sum: 7f27c247474026287e0dbe0f3167d60b
     Pseudo is Norm-conserving, Zval = 14.0
     Generated using ONCVPSP code by D. R. Hamann
     Using radial grid of  602 points,  8 beta functions with: 
                l(1) =   0
                l(2) =   0
                l(3) =   1
                l(4) =   1
                l(5) =   2
                l(6) =   2
                l(7) =   3
                l(8) =   3

     atomic species   valence    mass     pseudopotential
        Pb            14.00   207.20000     Pb( 1.00)

     48 Sym. Ops., with inversion, found



   Cartesian axes

     site n.     atom                  positions (alat units)
         1           Pb  tau(   1) = (   0.0000000   0.0000000   0.0000000  )

     number of k points= 27648 (tetrahedron method)

     Number of k-points >= 100: set verbosity='high' to print them.

     Dense  grid:     5985 G-vectors     FFT dimensions: (  25,  25,  25)

     Estimated max dynamical RAM per process >       2.92 MB

     Estimated total dynamical RAM >       2.92 GB

     The potential is recalculated from file :
     ./_ph0/pwscf.q_8/pwscf.save/charge-density

     Starting wfcs are    0 atomic +   11 random wfcs

     Band Structure Calculation
     Davidson diagonalization with overlap

     ethr =  7.14E-11,  avg # of iterations = 20.8

     total cpu time spent up to now is      150.2 secs

     End of band structure calculation

     Number of k-points >= 100: set verbosity='high' to print the bands.

     the Fermi energy is    11.5418 ev

     Writing output data file ./_ph0/pwscf.q_8/pwscf.save/
 
     [dfpt_tetra]  Dos(E_F)[/Ry] :   0.7160190E+01

     Electron-phonon matrix                                                     

     bravais-lattice index     =            2
     lattice parameter (alat)  =       9.5194  a.u.
     unit-cell volume          =     215.6591 (a.u.)^3
     number of atoms/cell      =            1
     number of atomic types    =            1
     kinetic-energy cut-off    =      35.0000  Ry
     charge density cut-off    =     140.0000  Ry
     convergence threshold     =      1.0E-12
     beta                      =       0.7000
     number of iterations used =            4
     Exchange-correlation= PBE
                           (   1   4   3   4   0   0   0)


     celldm(1)=    9.51939  celldm(2)=    0.00000  celldm(3)=    0.00000
     celldm(4)=    0.00000  celldm(5)=    0.00000  celldm(6)=    0.00000

     crystal axes: (cart. coord. in units of alat)
               a(1) = ( -0.5000  0.0000  0.5000 )  
               a(2) = (  0.0000  0.5000  0.5000 )  
               a(3) = ( -0.5000  0.5000  0.0000 )  

     reciprocal axes: (cart. coord. in units 2 pi/alat)
               b(1) = ( -1.0000 -1.0000  1.0000 )  
               b(2) = (  1.0000  1.0000  1.0000 )  
               b(3) = ( -1.0000  1.0000 -1.0000 )  


     Atoms inside the unit cell: 

     Cartesian axes

     site n.  atom      mass           positions (alat units)
        1     Pb 207.2000   tau(    1) = (    0.00000    0.00000    0.00000  )

     Computing dynamical matrix for 
                    q = (  -0.2500000   0.5833333  -0.0833333 )
 
     No symmetry!

     G cutoff =  321.3563  (    749 G-vectors)     FFT grid: ( 25, 25, 25)
     number of k points= 27648

     PseudoPot. # 1 for Pb read from file:
     ./Pb_ONCV_PBE-1.2.upf
     MD5 check sum: 7f27c247474026287e0dbe0f3167d60b
     Pseudo is Norm-conserving, Zval = 14.0
     Generated using ONCVPSP code by D. R. Hamann
     Using radial grid of  602 points,  8 beta functions with: 
                l(1) =   0
                l(2) =   0
                l(3) =   1
                l(4) =   1
                l(5) =   2
                l(6) =   2
                l(7) =   3
                l(8) =   3


     Atomic displacements:
     There are    3 irreducible representations

     Representation     1      1 modes -  To be done

     Representation     2      1 modes -  To be done

     Representation     3      1 modes -  To be done


     PHONON       :   3m 5.11s CPU   3m36.16s WALL

     Reading dVscf from file dv
     Reading dynamics matrix from file matdyn8

     Diagonalizing the dynamical matrix

     q = (   -0.250000000   0.583333333  -0.083333333 ) 

 **************************************************************************
     freq (    1) =       1.100780 [THz] =      36.718074 [cm-1]
     freq (    2) =       1.334118 [THz] =      44.501374 [cm-1]
     freq (    3) =       1.844836 [THz] =      61.537101 [cm-1]
 **************************************************************************

     [elph_tetra]   Lowest band which contains FS :          7
     [elph_tetra]  Highest band which contains FS :          8
     [elph_tetra]    # of bands which contains FS :          2
 
     Tetrahedron method
     DOS =  3.580095 states/spin/Ry/Unit Cell at Ef= 11.541775 eV
     double delta at Ef = 27.908547
     lambda(    1)=  0.4967   gamma=    2.06 GHz
     lambda(    2)=  0.1907   gamma=    1.16 GHz
     lambda(    3)=  0.4016   gamma=    4.67 GHz
 
     Number of q in the star =   48
     List of q in the star:
          1  -0.250000000   0.583333333  -0.083333333
          2   0.083333333   0.583333333   0.250000000
          3   0.083333333   0.250000000   0.583333333
          4  -0.583333333  -0.083333333   0.250000000
          5  -0.583333333   0.250000000  -0.083333333
          6  -0.250000000  -0.083333333   0.583333333
          7   0.583333333   0.250000000  -0.083333333
          8  -0.583333333  -0.250000000  -0.083333333
          9  -0.083333333  -0.583333333  -0.250000000
         10   0.083333333  -0.583333333   0.250000000
         11  -0.083333333   0.583333333   0.250000000
         12   0.083333333   0.583333333  -0.250000000
         13   0.250000000  -0.083333333   0.583333333
         14   0.250000000   0.083333333  -0.583333333
         15  -0.250000000  -0.083333333  -0.583333333
         16  -0.250000000   0.083333333   0.583333333
         17   0.583333333  -0.083333333  -0.250000000
         18   0.250000000  -0.583333333  -0.083333333
         19   0.583333333   0.083333333   0.250000000
         20  -0.583333333   0.083333333  -0.250000000
         21  -0.083333333  -0.250000000   0.583333333
         22  -0.083333333   0.250000000  -0.583333333
         23   0.250000000   0.583333333   0.083333333
         24   0.083333333  -0.250000000  -0.583333333
         25   0.250000000  -0.583333333   0.083333333
         26  -0.250000000   0.583333333   0.083333333
         27  -0.250000000  -0.583333333  -0.083333333
         28   0.250000000   0.583333333  -0.083333333
         29  -0.250000000  -0.583333333   0.083333333
         30   0.583333333  -0.250000000  -0.083333333
         31  -0.583333333  -0.250000000   0.083333333
         32   0.583333333   0.250000000   0.083333333
         33   0.583333333  -0.250000000   0.083333333
         34  -0.083333333   0.583333333  -0.250000000
         35   0.083333333  -0.583333333  -0.250000000
         36  -0.083333333  -0.583333333   0.250000000
         37  -0.250000000   0.083333333  -0.583333333
         38  -0.583333333   0.250000000   0.083333333
         39   0.250000000   0.083333333   0.583333333
         40   0.250000000  -0.083333333  -0.583333333
         41  -0.583333333   0.083333333   0.250000000
         42   0.583333333   0.083333333  -0.250000000
         43  -0.583333333  -0.083333333  -0.250000000
         44   0.583333333  -0.083333333   0.250000000
         45   0.083333333   0.250000000  -0.583333333
         46   0.083333333  -0.250000000   0.583333333
         47  -0.083333333  -0.250000000  -0.583333333
         48  -0.083333333   0.250000000   0.583333333

     Calculation of q =    0.5833333  -0.2500000   0.7500000
     [opt_tetra]  Optimized tetrahedron method is used.
 
     Parallelization info
     --------------------
     sticks:   dense  smooth     PW     G-vecs:    dense   smooth      PW
     Min          54      54     20                  747      747     181
     Max          55      55     21                  750      750     185
     Sum         433     433    163                 5985     5985    1459
 
     Using Slab Decomposition
 

     Title: 
     Electron-phonon matrix                                                     


     bravais-lattice index     =            2
     lattice parameter (alat)  =       9.5194  a.u.
     unit-cell volume          =     215.6591 (a.u.)^3
     number of atoms/cell      =            1
     number of atomic types    =            1
     number of electrons       =        14.00
     number of Kohn-Sham states=           11
     kinetic-energy cutoff     =      35.0000  Ry
     charge density cutoff     =     140.0000  Ry
     Exchange-correlation= PBE
                           (   1   4   3   4   0   0   0)

     celldm(1)=   9.519393  celldm(2)=   0.000000  celldm(3)=   0.000000
     celldm(4)=   0.000000  celldm(5)=   0.000000  celldm(6)=   0.000000

     crystal axes: (cart. coord. in units of alat)
               a(1) = (  -0.500000   0.000000   0.500000 )  
               a(2) = (   0.000000   0.500000   0.500000 )  
               a(3) = (  -0.500000   0.500000   0.000000 )  

     reciprocal axes: (cart. coord. in units 2 pi/alat)
               b(1) = ( -1.000000 -1.000000  1.000000 )  
               b(2) = (  1.000000  1.000000  1.000000 )  
               b(3) = ( -1.000000  1.000000 -1.000000 )  


     PseudoPot. # 1 for Pb read from file:
     ./Pb_ONCV_PBE-1.2.upf
     MD5 check sum: 7f27c247474026287e0dbe0f3167d60b
     Pseudo is Norm-conserving, Zval = 14.0
     Generated using ONCVPSP code by D. R. Hamann
     Using radial grid of  602 points,  8 beta functions with: 
                l(1) =   0
                l(2) =   0
                l(3) =   1
                l(4) =   1
                l(5) =   2
                l(6) =   2
                l(7) =   3
                l(8) =   3

     atomic species   valence    mass     pseudopotential
        Pb            14.00   207.20000     Pb( 1.00)

     48 Sym. Ops., with inversion, found



   Cartesian axes

     site n.     atom                  positions (alat units)
         1           Pb  tau(   1) = (   0.0000000   0.0000000   0.0000000  )

     number of k points= 27648 (tetrahedron method)

     Number of k-points >= 100: set verbosity='high' to print them.

     Dense  grid:     5985 G-vectors     FFT dimensions: (  25,  25,  25)

     Estimated max dynamical RAM per process >       2.96 MB

     Estimated total dynamical RAM >       2.96 GB

     The potential is recalculated from file :
     ./_ph0/pwscf.q_9/pwscf.save/charge-density

     Starting wfcs are    0 atomic +   11 random wfcs

     Band Structure Calculation
     Davidson diagonalization with overlap

     ethr =  7.14E-11,  avg # of iterations = 20.8

     total cpu time spent up to now is      177.7 secs

     End of band structure calculation

     Number of k-points >= 100: set verbosity='high' to print the bands.

     the Fermi energy is    11.5418 ev

     Writing output data file ./_ph0/pwscf.q_9/pwscf.save/
 
     [dfpt_tetra]  Dos(E_F)[/Ry] :   0.7160190E+01

     Electron-phonon matrix                                                     

     bravais-lattice index     =            2
     lattice parameter (alat)  =       9.5194  a.u.
     unit-cell volume          =     215.6591 (a.u.)^3
     number of atoms/cell      =            1
     number of atomic types    =            1
     kinetic-energy cut-off    =      35.0000  Ry
     charge density cut-off    =     140.0000  Ry
     convergence threshold     =      1.0E-12
     beta                      =       0.7000
     number of iterations used =            4
     Exchange-correlation= PBE
                           (   1   4   3   4   0   0   0)


     celldm(1)=    9.51939  celldm(2)=    0.00000  celldm(3)=    0.00000
     celldm(4)=    0.00000  celldm(5)=    0.00000  celldm(6)=    0.00000

     crystal axes: (cart. coord. in units of alat)
               a(1) = ( -0.5000  0.0000  0.5000 )  
               a(2) = (  0.0000  0.5000  0.5000 )  
               a(3) = ( -0.5000  0.5000  0.0000 )  

     reciprocal axes: (cart. coord. in units 2 pi/alat)
               b(1) = ( -1.0000 -1.0000  1.0000 )  
               b(2) = (  1.0000  1.0000  1.0000 )  
               b(3) = ( -1.0000  1.0000 -1.0000 )  


     Atoms inside the unit cell: 

     Cartesian axes

     site n.  atom      mass           positions (alat units)
        1     Pb 207.2000   tau(    1) = (    0.00000    0.00000    0.00000  )

     Computing dynamical matrix for 
                    q = (   0.5833333  -0.2500000   0.7500000 )
 
     No symmetry!

     G cutoff =  321.3563  (    749 G-vectors)     FFT grid: ( 25, 25, 25)
     number of k points= 27648

     PseudoPot. # 1 for Pb read from file:
     ./Pb_ONCV_PBE-1.2.upf
     MD5 check sum: 7f27c247474026287e0dbe0f3167d60b
     Pseudo is Norm-conserving, Zval = 14.0
     Generated using ONCVPSP code by D. R. Hamann
     Using radial grid of  602 points,  8 beta functions with: 
                l(1) =   0
                l(2) =   0
                l(3) =   1
                l(4) =   1
                l(5) =   2
                l(6) =   2
                l(7) =   3
                l(8) =   3


     Atomic displacements:
     There are    3 irreducible representations

     Representation     1      1 modes -  To be done

     Representation     2      1 modes -  To be done

     Representation     3      1 modes -  To be done


     PHONON       :   3m41.26s CPU   4m16.46s WALL

     Reading dVscf from file dv
     Reading dynamics matrix from file matdyn9

     Diagonalizing the dynamical matrix

     q = (    0.583333333  -0.250000000   0.750000000 ) 

 **************************************************************************
     freq (    1) =       1.204662 [THz] =      40.183208 [cm-1]
     freq (    2) =       1.572683 [THz] =      52.459046 [cm-1]
     freq (    3) =       2.014562 [THz] =      67.198565 [cm-1]
 **************************************************************************

     [elph_tetra]   Lowest band which contains FS :          7
     [elph_tetra]  Highest band which contains FS :          8
     [elph_tetra]    # of bands which contains FS :          2
 
     Tetrahedron method
     DOS =  3.580095 states/spin/Ry/Unit Cell at Ef= 11.541775 eV
     double delta at Ef = 24.367670
     lambda(    1)=  0.4642   gamma=    2.30 GHz
     lambda(    2)=  0.2631   gamma=    2.22 GHz
     lambda(    3)=  0.2170   gamma=    3.01 GHz
 
     Number of q in the star =   48
     List of q in the star:
          1   0.583333333  -0.250000000   0.750000000
          2  -0.750000000  -0.250000000  -0.583333333
          3  -0.750000000  -0.583333333  -0.250000000
          4   0.250000000   0.750000000  -0.583333333
          5   0.250000000  -0.583333333   0.750000000
          6   0.583333333   0.750000000  -0.250000000
          7  -0.250000000  -0.583333333   0.750000000
          8   0.250000000   0.583333333   0.750000000
          9   0.750000000   0.250000000   0.583333333
         10  -0.750000000   0.250000000  -0.583333333
         11   0.750000000  -0.250000000  -0.583333333
         12  -0.750000000  -0.250000000   0.583333333
         13  -0.583333333   0.750000000  -0.250000000
         14  -0.583333333  -0.750000000   0.250000000
         15   0.583333333   0.750000000   0.250000000
         16   0.583333333  -0.750000000  -0.250000000
         17  -0.250000000   0.750000000   0.583333333
         18  -0.583333333   0.250000000   0.750000000
         19  -0.250000000  -0.750000000  -0.583333333
         20   0.250000000  -0.750000000   0.583333333
         21   0.750000000   0.583333333  -0.250000000
         22   0.750000000  -0.583333333   0.250000000
         23  -0.583333333  -0.250000000  -0.750000000
         24  -0.750000000   0.583333333   0.250000000
         25  -0.583333333   0.250000000  -0.750000000
         26   0.583333333  -0.250000000  -0.750000000
         27   0.583333333   0.250000000   0.750000000
         28  -0.583333333  -0.250000000   0.750000000
         29   0.583333333   0.250000000  -0.750000000
         30  -0.250000000   0.583333333   0.750000000
         31   0.250000000   0.583333333  -0.750000000
         32  -0.250000000  -0.583333333  -0.750000000
         33  -0.250000000   0.583333333  -0.750000000
         34   0.750000000  -0.250000000   0.583333333
         35  -0.750000000   0.250000000   0.583333333
         36   0.750000000   0.250000000  -0.583333333
         37   0.583333333  -0.750000000   0.250000000
         38   0.250000000  -0.583333333  -0.750000000
         39  -0.583333333  -0.750000000  -0.250000000
         40  -0.583333333   0.750000000   0.250000000
         41   0.250000000  -0.750000000  -0.583333333
         42  -0.250000000  -0.750000000   0.583333333
         43   0.250000000   0.750000000   0.583333333
         44  -0.250000000   0.750000000  -0.583333333
         45  -0.750000000  -0.583333333   0.250000000
         46  -0.750000000   0.583333333  -0.250000000
         47   0.750000000   0.583333333   0.250000000
         48   0.750000000  -0.583333333  -0.250000000

     Calculation of q =    0.4166667  -0.0833333   0.5833333
     [opt_tetra]  Optimized tetrahedron method is used.
 
     Parallelization info
     --------------------
[...]
          4  -1.083333333   0.250000000   0.250000000
          5   1.083333333  -0.250000000   0.250000000
          6   0.250000000   1.083333333  -0.250000000
          7  -0.250000000   1.083333333   0.250000000
          8   0.250000000  -1.083333333   0.250000000
          9  -0.250000000  -1.083333333  -0.250000000
         10   0.250000000   0.250000000  -1.083333333
         11   0.250000000  -0.250000000   1.083333333
         12  -0.250000000   0.250000000   1.083333333
         13  -0.250000000  -0.250000000  -1.083333333
         14  -1.083333333   0.250000000  -0.250000000
         15   0.250000000   1.083333333   0.250000000
         16  -1.083333333  -0.250000000   0.250000000
         17   1.083333333  -0.250000000  -0.250000000
         18   0.250000000  -0.250000000  -1.083333333
         19   0.250000000   0.250000000   1.083333333
         20   0.250000000  -1.083333333  -0.250000000
         21  -0.250000000  -0.250000000   1.083333333
         22  -0.250000000   1.083333333  -0.250000000
         23  -1.083333333  -0.250000000  -0.250000000
         24   1.083333333   0.250000000  -0.250000000

     Calculation of q =   -0.4166667   0.4166667   0.4166667
     [opt_tetra]  Optimized tetrahedron method is used.
 
     Parallelization info
     --------------------
     sticks:   dense  smooth     PW     G-vecs:    dense   smooth      PW
     Min          54      54     20                  747      747     175
     Max          55      55     21                  750      750     178
     Sum         433     433    163                 5985     5985    1411
 
     Using Slab Decomposition
 

     Title: 
     Electron-phonon matrix                                                     


     bravais-lattice index     =            2
     lattice parameter (alat)  =       9.5194  a.u.
     unit-cell volume          =     215.6591 (a.u.)^3
     number of atoms/cell      =            1
     number of atomic types    =            1
     number of electrons       =        14.00
     number of Kohn-Sham states=           11
     kinetic-energy cutoff     =      35.0000  Ry
     charge density cutoff     =     140.0000  Ry
     Exchange-correlation= PBE
                           (   1   4   3   4   0   0   0)

     celldm(1)=   9.519393  celldm(2)=   0.000000  celldm(3)=   0.000000
     celldm(4)=   0.000000  celldm(5)=   0.000000  celldm(6)=   0.000000

     crystal axes: (cart. coord. in units of alat)
               a(1) = (  -0.500000   0.000000   0.500000 )  
               a(2) = (   0.000000   0.500000   0.500000 )  
               a(3) = (  -0.500000   0.500000   0.000000 )  

     reciprocal axes: (cart. coord. in units 2 pi/alat)
               b(1) = ( -1.000000 -1.000000  1.000000 )  
               b(2) = (  1.000000  1.000000  1.000000 )  
               b(3) = ( -1.000000  1.000000 -1.000000 )  


     PseudoPot. # 1 for Pb read from file:
     ./Pb_ONCV_PBE-1.2.upf
     MD5 check sum: 7f27c247474026287e0dbe0f3167d60b
     Pseudo is Norm-conserving, Zval = 14.0
     Generated using ONCVPSP code by D. R. Hamann
     Using radial grid of  602 points,  8 beta functions with: 
                l(1) =   0
                l(2) =   0
                l(3) =   1
                l(4) =   1
                l(5) =   2
                l(6) =   2
                l(7) =   3
                l(8) =   3

     atomic species   valence    mass     pseudopotential
        Pb            14.00   207.20000     Pb( 1.00)

     48 Sym. Ops., with inversion, found



   Cartesian axes

     site n.     atom                  positions (alat units)
         1           Pb  tau(   1) = (   0.0000000   0.0000000   0.0000000  )

     number of k points=  5200 (tetrahedron method)

     Number of k-points >= 100: set verbosity='high' to print them.

     Dense  grid:     5985 G-vectors     FFT dimensions: (  25,  25,  25)

     Estimated max dynamical RAM per process >       2.92 MB

     Estimated total dynamical RAM >       2.92 GB

     The potential is recalculated from file :
     ./_ph0/pwscf.q_27/pwscf.save/charge-density

     Starting wfcs are    0 atomic +   11 random wfcs

     Band Structure Calculation
     Davidson diagonalization with overlap

     ethr =  7.14E-11,  avg # of iterations = 21.1

     total cpu time spent up to now is      596.2 secs

     End of band structure calculation

     Number of k-points >= 100: set verbosity='high' to print the bands.

     the Fermi energy is    11.5418 ev

     Writing output data file ./_ph0/pwscf.q_27/pwscf.save/
 
     [dfpt_tetra]  Dos(E_F)[/Ry] :   0.7160190E+01

     Electron-phonon matrix                                                     

     bravais-lattice index     =            2
     lattice parameter (alat)  =       9.5194  a.u.
     unit-cell volume          =     215.6591 (a.u.)^3
     number of atoms/cell      =            1
     number of atomic types    =            1
     kinetic-energy cut-off    =      35.0000  Ry
     charge density cut-off    =     140.0000  Ry
     convergence threshold     =      1.0E-12
     beta                      =       0.7000
     number of iterations used =            4
     Exchange-correlation= PBE
                           (   1   4   3   4   0   0   0)


     celldm(1)=    9.51939  celldm(2)=    0.00000  celldm(3)=    0.00000
     celldm(4)=    0.00000  celldm(5)=    0.00000  celldm(6)=    0.00000

     crystal axes: (cart. coord. in units of alat)
               a(1) = ( -0.5000  0.0000  0.5000 )  
               a(2) = (  0.0000  0.5000  0.5000 )  
               a(3) = ( -0.5000  0.5000  0.0000 )  

     reciprocal axes: (cart. coord. in units 2 pi/alat)
               b(1) = ( -1.0000 -1.0000  1.0000 )  
               b(2) = (  1.0000  1.0000  1.0000 )  
               b(3) = ( -1.0000  1.0000 -1.0000 )  


     Atoms inside the unit cell: 

     Cartesian axes

     site n.  atom      mass           positions (alat units)
        1     Pb 207.2000   tau(    1) = (    0.00000    0.00000    0.00000  )

     Computing dynamical matrix for 
                    q = (  -0.4166667   0.4166667   0.4166667 )
 
      6 Sym.Ops. (no q -> -q+G )


     G cutoff =  321.3563  (    749 G-vectors)     FFT grid: ( 25, 25, 25)
     number of k points=  5200

     PseudoPot. # 1 for Pb read from file:
     ./Pb_ONCV_PBE-1.2.upf
     MD5 check sum: 7f27c247474026287e0dbe0f3167d60b
     Pseudo is Norm-conserving, Zval = 14.0
     Generated using ONCVPSP code by D. R. Hamann
     Using radial grid of  602 points,  8 beta functions with: 
                l(1) =   0
                l(2) =   0
                l(3) =   1
                l(4) =   1
                l(5) =   2
                l(6) =   2
                l(7) =   3
                l(8) =   3


     Atomic displacements:
     There are    2 irreducible representations

     Representation     1      1 modes -  To be done

     Representation     2      2 modes -  To be done


     PHONON       :  12m 9.44s CPU  13m46.55s WALL

     Reading dVscf from file dv
     Reading dynamics matrix from file matdyn27

     Diagonalizing the dynamical matrix

     q = (   -0.416666667   0.416666667   0.416666667 ) 

 **************************************************************************
     freq (    1) =       1.049127 [THz] =      34.995107 [cm-1]
     freq (    2) =       1.049127 [THz] =      34.995107 [cm-1]
     freq (    3) =       1.997584 [THz] =      66.632214 [cm-1]
 **************************************************************************

     [elph_tetra]   Lowest band which contains FS :          7
     [elph_tetra]  Highest band which contains FS :          8
     [elph_tetra]    # of bands which contains FS :          2
 
     Tetrahedron method
     DOS =  3.580095 states/spin/Ry/Unit Cell at Ef= 11.541775 eV
     double delta at Ef = 22.855048
     lambda(    1)=  0.2760   gamma=    1.04 GHz
     lambda(    2)=  0.2760   gamma=    1.04 GHz
     lambda(    3)=  0.3312   gamma=    4.52 GHz
 
     Number of q in the star =    8
     List of q in the star:
          1  -0.416666667   0.416666667   0.416666667
          2   0.416666667   0.416666667   0.416666667
          3  -0.416666667  -0.416666667   0.416666667
          4   0.416666667  -0.416666667  -0.416666667
          5  -0.416666667   0.416666667  -0.416666667
          6   0.416666667   0.416666667  -0.416666667
          7   0.416666667  -0.416666667   0.416666667
          8  -0.416666667  -0.416666667  -0.416666667

     Calculation of q =    0.4166667  -0.4166667   1.2500000
     [opt_tetra]  Optimized tetrahedron method is used.
 
     Parallelization info
     --------------------
     sticks:   dense  smooth     PW     G-vecs:    dense   smooth      PW
     Min          54      54     23                  747      747     204
     Max          55      55     24                  750      750     206
     Sum         433     433    187                 5985     5985    1639
 
     Using Slab Decomposition
 

     Title: 
     Electron-phonon matrix                                                     


     bravais-lattice index     =            2
     lattice parameter (alat)  =       9.5194  a.u.
     unit-cell volume          =     215.6591 (a.u.)^3
     number of atoms/cell      =            1
     number of atomic types    =            1
     number of electrons       =        14.00
     number of Kohn-Sham states=           11
     kinetic-energy cutoff     =      35.0000  Ry
     charge density cutoff     =     140.0000  Ry
     Exchange-correlation= PBE
                           (   1   4   3   4   0   0   0)

     celldm(1)=   9.519393  celldm(2)=   0.000000  celldm(3)=   0.000000
     celldm(4)=   0.000000  celldm(5)=   0.000000  celldm(6)=   0.000000

     crystal axes: (cart. coord. in units of alat)
               a(1) = (  -0.500000   0.000000   0.500000 )  
               a(2) = (   0.000000   0.500000   0.500000 )  
               a(3) = (  -0.500000   0.500000   0.000000 )  

     reciprocal axes: (cart. coord. in units 2 pi/alat)
               b(1) = ( -1.000000 -1.000000  1.000000 )  
               b(2) = (  1.000000  1.000000  1.000000 )  
               b(3) = ( -1.000000  1.000000 -1.000000 )  


     PseudoPot. # 1 for Pb read from file:
     ./Pb_ONCV_PBE-1.2.upf
     MD5 check sum: 7f27c247474026287e0dbe0f3167d60b
     Pseudo is Norm-conserving, Zval = 14.0
     Generated using ONCVPSP code by D. R. Hamann
     Using radial grid of  602 points,  8 beta functions with: 
                l(1) =   0
                l(2) =   0
                l(3) =   1
                l(4) =   1
                l(5) =   2
                l(6) =   2
                l(7) =   3
                l(8) =   3

     atomic species   valence    mass     pseudopotential
        Pb            14.00   207.20000     Pb( 1.00)

     48 Sym. Ops., with inversion, found



   Cartesian axes

     site n.     atom                  positions (alat units)
         1           Pb  tau(   1) = (   0.0000000   0.0000000   0.0000000  )

     number of k points= 14400 (tetrahedron method)

     Number of k-points >= 100: set verbosity='high' to print them.

     Dense  grid:     5985 G-vectors     FFT dimensions: (  25,  25,  25)

     Estimated max dynamical RAM per process >       3.01 MB

     Estimated total dynamical RAM >       3.01 GB

     The potential is recalculated from file :
     ./_ph0/pwscf.q_28/pwscf.save/charge-density

     Starting wfcs are    0 atomic +   11 random wfcs

     Band Structure Calculation
     Davidson diagonalization with overlap

     ethr =  7.14E-11,  avg # of iterations = 20.9

     total cpu time spent up to now is      616.4 secs

     End of band structure calculation

     Number of k-points >= 100: set verbosity='high' to print the bands.

     the Fermi energy is    11.5418 ev

     Writing output data file ./_ph0/pwscf.q_28/pwscf.save/
 
     [dfpt_tetra]  Dos(E_F)[/Ry] :   0.7160190E+01

     Electron-phonon matrix                                                     

     bravais-lattice index     =            2
     lattice parameter (alat)  =       9.5194  a.u.
     unit-cell volume          =     215.6591 (a.u.)^3
     number of atoms/cell      =            1
     number of atomic types    =            1
     kinetic-energy cut-off    =      35.0000  Ry
     charge density cut-off    =     140.0000  Ry
     convergence threshold     =      1.0E-12
     beta                      =       0.7000
     number of iterations used =            4
     Exchange-correlation= PBE
                           (   1   4   3   4   0   0   0)


     celldm(1)=    9.51939  celldm(2)=    0.00000  celldm(3)=    0.00000
     celldm(4)=    0.00000  celldm(5)=    0.00000  celldm(6)=    0.00000

     crystal axes: (cart. coord. in units of alat)
               a(1) = ( -0.5000  0.0000  0.5000 )  
               a(2) = (  0.0000  0.5000  0.5000 )  
               a(3) = ( -0.5000  0.5000  0.0000 )  

     reciprocal axes: (cart. coord. in units 2 pi/alat)
               b(1) = ( -1.0000 -1.0000  1.0000 )  
               b(2) = (  1.0000  1.0000  1.0000 )  
               b(3) = ( -1.0000  1.0000 -1.0000 )  


     Atoms inside the unit cell: 

     Cartesian axes

     site n.  atom      mass           positions (alat units)
        1     Pb 207.2000   tau(    1) = (    0.00000    0.00000    0.00000  )

     Computing dynamical matrix for 
                    q = (   0.4166667  -0.4166667   1.2500000 )
 
      2 Sym.Ops. (no q -> -q+G )


     G cutoff =  321.3563  (    749 G-vectors)     FFT grid: ( 25, 25, 25)
     number of k points= 14400

     PseudoPot. # 1 for Pb read from file:
     ./Pb_ONCV_PBE-1.2.upf
     MD5 check sum: 7f27c247474026287e0dbe0f3167d60b
     Pseudo is Norm-conserving, Zval = 14.0
     Generated using ONCVPSP code by D. R. Hamann
     Using radial grid of  602 points,  8 beta functions with: 
                l(1) =   0
                l(2) =   0
                l(3) =   1
                l(4) =   1
                l(5) =   2
                l(6) =   2
                l(7) =   3
                l(8) =   3


     Atomic displacements:
     There are    3 irreducible representations

     Representation     1      1 modes -  To be done

     Representation     2      1 modes -  To be done

     Representation     3      1 modes -  To be done


     PHONON       :  12m32.65s CPU  14m11.93s WALL

     Reading dVscf from file dv
     Reading dynamics matrix from file matdyn28

     Diagonalizing the dynamical matrix

     q = (    0.416666667  -0.416666667   1.250000000 ) 

 **************************************************************************
     freq (    1) =       1.176777 [THz] =      39.253052 [cm-1]
     freq (    2) =       1.364568 [THz] =      45.517086 [cm-1]
     freq (    3) =       2.067228 [THz] =      68.955288 [cm-1]
 **************************************************************************

     [elph_tetra]   Lowest band which contains FS :          7
     [elph_tetra]  Highest band which contains FS :          8
     [elph_tetra]    # of bands which contains FS :          2
 
     Tetrahedron method
     DOS =  3.580095 states/spin/Ry/Unit Cell at Ef= 11.541775 eV
     double delta at Ef = 29.903822
     lambda(    1)=  0.3816   gamma=    1.81 GHz
     lambda(    2)=  0.5702   gamma=    3.63 GHz
     lambda(    3)=  0.1590   gamma=    2.32 GHz
 
     Number of q in the star =   24
     List of q in the star:
          1   0.416666667  -0.416666667   1.250000000
          2  -1.250000000  -0.416666667  -0.416666667
          3   0.416666667   1.250000000  -0.416666667
          4  -0.416666667  -0.416666667   1.250000000
          5   0.416666667   0.416666667   1.250000000
          6   1.250000000   0.416666667   0.416666667
          7  -1.250000000   0.416666667  -0.416666667
          8   1.250000000  -0.416666667  -0.416666667
          9  -1.250000000  -0.416666667   0.416666667
         10  -0.416666667   1.250000000  -0.416666667
         11  -0.416666667  -1.250000000   0.416666667
         12   0.416666667   1.250000000   0.416666667
         13   0.416666667  -1.250000000  -0.416666667
         14  -0.416666667   1.250000000   0.416666667
         15  -0.416666667   0.416666667   1.250000000
         16  -0.416666667  -1.250000000  -0.416666667
         17   0.416666667  -1.250000000   0.416666667
         18   1.250000000   0.416666667  -0.416666667
         19   1.250000000  -0.416666667   0.416666667
         20  -0.416666667  -0.416666667  -1.250000000
         21  -1.250000000   0.416666667   0.416666667
         22  -0.416666667   0.416666667  -1.250000000
         23   0.416666667  -0.416666667  -1.250000000
         24   0.416666667   0.416666667  -1.250000000
 
     init_run     :     11.70s CPU     14.24s WALL (      28 calls)
     electrons    :    449.10s CPU    475.86s WALL (      28 calls)

     Called by init_run:
     wfcinit      :      0.01s CPU      0.13s WALL (      28 calls)
     potinit      :      0.54s CPU      2.73s WALL (      28 calls)
     hinit0       :      0.13s CPU      0.16s WALL (      28 calls)

     Called by electrons:
     c_bands      :    286.81s CPU    308.47s WALL (      28 calls)
     v_of_rho     :      0.03s CPU      0.06s WALL (      29 calls)

     Called by c_bands:
     init_us_2    :      0.53s CPU      0.56s WALL (   11925 calls)
     cegterg      :    109.29s CPU    114.22s WALL (    6638 calls)

     Called by *egterg:
     cdiaghg      :     27.62s CPU     30.66s WALL (   97301 calls)
     h_psi        :     73.64s CPU     76.85s WALL (  103939 calls)
     g_psi        :      0.40s CPU      0.41s WALL (   93305 calls)

     Called by h_psi:
     h_psi:calbec :      3.46s CPU      3.95s WALL (  103939 calls)
     vloc_psi     :     67.26s CPU     69.86s WALL (  103939 calls)
     add_vuspsi   :      2.21s CPU      2.32s WALL (  103939 calls)

     General routines
     calbec       :      4.19s CPU      4.81s WALL (  111931 calls)
     fft          :      0.03s CPU      1.32s WALL (     374 calls)
     ffts         :      0.39s CPU      0.41s WALL (    5994 calls)
     fftw         :     69.12s CPU     71.90s WALL ( 1588276 calls)
     davcio       :      0.43s CPU     11.57s WALL (   19939 calls)
 
     Parallel routines
 
     PHONON       :  12m34.13s CPU  14m14.09s WALL

     INITIALIZATION: 
     phq_setup    :    121.99s CPU    155.18s WALL (      28 calls)
     phq_init     :      1.12s CPU      1.25s WALL (      28 calls)
 
     phq_init     :      1.12s CPU      1.25s WALL (      28 calls)
     init_vloc    :      0.01s CPU      0.01s WALL (      29 calls)
     init_us_1    :      0.12s CPU      0.16s WALL (      29 calls)
 
 
 
 
     dvqpsi_us    :      9.35s CPU      9.86s WALL (    5994 calls)
 
     dvqpsi_us    :      9.35s CPU      9.86s WALL (    5994 calls)
     dvqpsi_us_on :      2.80s CPU      2.92s WALL (    5994 calls)
 
 
     h_psi        :     73.64s CPU     76.85s WALL (  103939 calls)
 
     h_psi        :     73.64s CPU     76.85s WALL (  103939 calls)
     add_vuspsi   :      2.21s CPU      2.32s WALL (  103939 calls)
 
 
 
      Electron-phonon coupling
     elphon       :     23.48s CPU     27.29s WALL (      28 calls)
     elphel       :     11.07s CPU     11.65s WALL (      81 calls)
 
      General routines
     calbec       :      4.19s CPU      4.81s WALL (  111931 calls)
     fft          :      0.03s CPU      1.32s WALL (     374 calls)
     ffts         :      0.39s CPU      0.41s WALL (    5994 calls)
     fftw         :     69.12s CPU     71.90s WALL ( 1588276 calls)
     davcio       :      0.43s CPU     11.57s WALL (   19939 calls)
 
 
     PHONON       :  12m34.13s CPU  14m14.09s WALL

 
   This run was terminated on:  16:54:50  29Nov2023            

=------------------------------------------------------------------------------=
   JOB DONE.
=------------------------------------------------------------------------------=
