
     Program PHONON v.6.7GPU starts on 29Nov2023 at 16:17:41 

     This program is part of the open-source Quantum ESPRESSO suite
     for quantum simulation of materials; please cite
         "P. Giannozzi et al., J. Phys.:Condens. Matter 21 395502 (2009);
         "P. Giannozzi et al., J. Phys.:Condens. Matter 29 465901 (2017);
         "P. Giannozzi et al., J. Chem. Phys. 152 154105 (2020);
          URL http://www.quantum-espresso.org", 
     in publications or presentations arising from this work. More details at
     http://www.quantum-espresso.org/quote

     Parallel version (MPI & OpenMP), running on    1024 processor cores
     Number of MPI processes:              1024
     Threads/MPI process:                     1

     MPI processes distributed on     8 nodes
     K-points division:     npool     =     128
     R & G space division:  proc/nbgrp/npool/nimage =       8
     Waiting for input...
     Reading input from standard input

     Reading xml data from directory:

     ./pwscf.save/

     IMPORTANT: XC functional enforced from input :
     Exchange-correlation= PBE
                           (   1   4   3   4   0   0   0)
     Any further DFT definition will be discarded
     Please, verify this is what you really want

 
     Parallelization info
     --------------------
     sticks:   dense  smooth     PW     G-vecs:    dense   smooth      PW
     Min          54      54     18                  747      747     142
     Max          55      55     20                  750      750     143
     Sum         433     433    151                 5985     5985    1139
 
     Using Slab Decomposition
 
     Message from routine divide_et_impera:
     suboptimal parallelization: some nodes have no k-points
     Reading collected, re-writing distributed wavefunctions


     Dynamical matrices for ( 6, 6, 6)  uniform grid of q-points
     With a half shift
     (  28 q-points):
       N         xq(1)         xq(2)         xq(3) 
       1  -0.083333333   0.083333333   0.083333333
       2  -0.250000000   0.250000000  -0.083333333
       3  -0.416666667   0.416666667  -0.250000000
       4   0.416666667  -0.416666667   0.583333333
       5   0.250000000  -0.250000000   0.416666667
       6   0.083333333  -0.083333333   0.250000000
       7  -0.083333333   0.416666667   0.083333333
       8  -0.250000000   0.583333333  -0.083333333
       9   0.583333333  -0.250000000   0.750000000
      10   0.416666667  -0.083333333   0.583333333
      11   0.250000000   0.083333333   0.416666667
      12  -0.083333333   0.750000000   0.083333333
      13   0.750000000  -0.083333333   0.916666667
      14   0.583333333   0.083333333   0.750000000
      15   0.416666667   0.250000000   0.583333333
      16  -0.083333333  -0.916666667   0.083333333
      17  -0.250000000  -0.750000000  -0.083333333
      18  -0.083333333  -0.583333333   0.083333333
      19  -0.250000000   0.250000000   0.250000000
      20  -0.416666667   0.416666667   0.083333333
      21   0.416666667  -0.416666667   0.916666667
      22   0.250000000  -0.250000000   0.750000000
      23  -0.250000000   0.583333333   0.250000000
      24   0.583333333  -0.250000000   1.083333333
      25   0.416666667  -0.083333333   0.916666667
      26  -0.250000000  -1.083333333   0.250000000
      27  -0.416666667   0.416666667   0.416666667
      28   0.416666667  -0.416666667   1.250000000
     Because shifted q grid is used, q2r will not work !

     Saving dvscf to file. Distribute only q points, not irreducible represetations.

     Calculation of q =   -0.0833333   0.0833333   0.0833333

     Subspace diagonalization in iterative solution of the eigenvalue problem:
     a serial algorithm will be used

     [opt_tetra]  Optimized tetrahedron method is used.
 
     Parallelization info
     --------------------
     sticks:   dense  smooth     PW     G-vecs:    dense   smooth      PW
     Min          54      54     18                  747      747     149
     Max          55      55     19                  750      750     152
     Sum         433     433    151                 5985     5985    1211
 
     Using Slab Decomposition
 

     Title: 
     Phonon frequency and deformation potential                                 


     bravais-lattice index     =            2
     lattice parameter (alat)  =       9.5194  a.u.
     unit-cell volume          =     215.6591 (a.u.)^3
     number of atoms/cell      =            1
     number of atomic types    =            1
     number of electrons       =        14.00
     number of Kohn-Sham states=           11
     kinetic-energy cutoff     =      35.0000  Ry
     charge density cutoff     =     140.0000  Ry
     Exchange-correlation= PBE
                           (   1   4   3   4   0   0   0)

     celldm(1)=   9.519393  celldm(2)=   0.000000  celldm(3)=   0.000000
     celldm(4)=   0.000000  celldm(5)=   0.000000  celldm(6)=   0.000000

     crystal axes: (cart. coord. in units of alat)
               a(1) = (  -0.500000   0.000000   0.500000 )  
               a(2) = (   0.000000   0.500000   0.500000 )  
               a(3) = (  -0.500000   0.500000   0.000000 )  

     reciprocal axes: (cart. coord. in units 2 pi/alat)
               b(1) = ( -1.000000 -1.000000  1.000000 )  
               b(2) = (  1.000000  1.000000  1.000000 )  
               b(3) = ( -1.000000  1.000000 -1.000000 )  


     PseudoPot. # 1 for Pb read from file:
     ./Pb_ONCV_PBE-1.2.upf
     MD5 check sum: 7f27c247474026287e0dbe0f3167d60b
     Pseudo is Norm-conserving, Zval = 14.0
     Generated using ONCVPSP code by D. R. Hamann
     Using radial grid of  602 points,  8 beta functions with: 
                l(1) =   0
                l(2) =   0
                l(3) =   1
                l(4) =   1
                l(5) =   2
                l(6) =   2
                l(7) =   3
                l(8) =   3

     atomic species   valence    mass     pseudopotential
        Pb            14.00   207.20000     Pb( 1.00)

     48 Sym. Ops., with inversion, found



   Cartesian axes

     site n.     atom                  positions (alat units)
         1           Pb  tau(   1) = (   0.0000000   0.0000000   0.0000000  )

     number of k points=   728 (tetrahedron method)

     Number of k-points >= 100: set verbosity='high' to print them.

     Dense  grid:     5985 G-vectors     FFT dimensions: (  25,  25,  25)

     Estimated max dynamical RAM per process >       2.85 MB

     Estimated total dynamical RAM >       2.85 GB

     The potential is recalculated from file :
     ./_ph0/pwscf.q_1/pwscf.save/charge-density

     Starting wfcs are    0 atomic +   11 random wfcs

     Band Structure Calculation
     Davidson diagonalization with overlap

     ethr =  7.14E-11,  avg # of iterations = 21.4

     total cpu time spent up to now is        7.3 secs

     End of band structure calculation

     Number of k-points >= 100: set verbosity='high' to print the bands.

     the Fermi energy is    11.5438 ev

     Writing output data file ./_ph0/pwscf.q_1/pwscf.save/
 
     [dfpt_tetra]  Dos(E_F)[/Ry] :   0.7203970E+01

     Phonon frequency and deformation potential                                 

     bravais-lattice index     =            2
     lattice parameter (alat)  =       9.5194  a.u.
     unit-cell volume          =     215.6591 (a.u.)^3
     number of atoms/cell      =            1
     number of atomic types    =            1
     kinetic-energy cut-off    =      35.0000  Ry
     charge density cut-off    =     140.0000  Ry
     convergence threshold     =      1.0E-15
     beta                      =       0.3000
     number of iterations used =            4
     Exchange-correlation= PBE
                           (   1   4   3   4   0   0   0)


     celldm(1)=    9.51939  celldm(2)=    0.00000  celldm(3)=    0.00000
     celldm(4)=    0.00000  celldm(5)=    0.00000  celldm(6)=    0.00000

     crystal axes: (cart. coord. in units of alat)
               a(1) = ( -0.5000  0.0000  0.5000 )  
               a(2) = (  0.0000  0.5000  0.5000 )  
               a(3) = ( -0.5000  0.5000  0.0000 )  

     reciprocal axes: (cart. coord. in units 2 pi/alat)
               b(1) = ( -1.0000 -1.0000  1.0000 )  
               b(2) = (  1.0000  1.0000  1.0000 )  
               b(3) = ( -1.0000  1.0000 -1.0000 )  


     Atoms inside the unit cell: 

     Cartesian axes

     site n.  atom      mass           positions (alat units)
        1     Pb 207.2000   tau(    1) = (    0.00000    0.00000    0.00000  )

     Computing dynamical matrix for 
                    q = (  -0.0833333   0.0833333   0.0833333 )
 
      6 Sym.Ops. (no q -> -q+G )


     G cutoff =  321.3563  (    749 G-vectors)     FFT grid: ( 25, 25, 25)
     number of k points=   728

     PseudoPot. # 1 for Pb read from file:
     ./Pb_ONCV_PBE-1.2.upf
     MD5 check sum: 7f27c247474026287e0dbe0f3167d60b
     Pseudo is Norm-conserving, Zval = 14.0
     Generated using ONCVPSP code by D. R. Hamann
     Using radial grid of  602 points,  8 beta functions with: 
                l(1) =   0
                l(2) =   0
                l(3) =   1
                l(4) =   1
                l(5) =   2
                l(6) =   2
                l(7) =   3
                l(8) =   3


     Atomic displacements:
     There are    2 irreducible representations

     Representation     1      1 modes -  To be done

     Representation     2      2 modes -  To be done



     Alpha used in Ewald sum =   1.4000
     PHONON       :      8.34s CPU     25.81s WALL



     Representation #   1 mode #   1

     Self-consistent Calculation

      iter #   1 total cpu time :    26.3 secs   av.it.:   5.6
      thresh= 1.000E-02 alpha_mix =  0.300 |ddv_scf|^2 =  2.515E+01

      iter #   2 total cpu time :    26.7 secs   av.it.:   8.1
      thresh= 1.000E-02 alpha_mix =  0.300 |ddv_scf|^2 =  1.861E+04

      iter #   3 total cpu time :    28.7 secs   av.it.:   8.1
      thresh= 1.000E-02 alpha_mix =  0.300 |ddv_scf|^2 =  1.242E-01

      iter #   4 total cpu time :    28.9 secs   av.it.:   3.4
      thresh= 1.000E-02 alpha_mix =  0.300 |ddv_scf|^2 =  2.435E-05

      iter #   5 total cpu time :    29.1 secs   av.it.:   4.8
      thresh= 4.935E-04 alpha_mix =  0.300 |ddv_scf|^2 =  4.542E-07

      iter #   6 total cpu time :    29.4 secs   av.it.:   5.2
      thresh= 6.740E-05 alpha_mix =  0.300 |ddv_scf|^2 =  4.716E-05

      iter #   7 total cpu time :    29.5 secs   av.it.:   3.0
      thresh= 6.868E-04 alpha_mix =  0.300 |ddv_scf|^2 =  1.039E-08

      iter #   8 total cpu time :    29.7 secs   av.it.:   6.8
      thresh= 1.019E-05 alpha_mix =  0.300 |ddv_scf|^2 =  1.955E-08

      iter #   9 total cpu time :    29.9 secs   av.it.:   5.2
      thresh= 1.398E-05 alpha_mix =  0.300 |ddv_scf|^2 =  2.359E-10

      iter #  10 total cpu time :    30.0 secs   av.it.:   5.8
      thresh= 1.536E-06 alpha_mix =  0.300 |ddv_scf|^2 =  2.400E-10

      iter #  11 total cpu time :    30.2 secs   av.it.:   5.5
      thresh= 1.549E-06 alpha_mix =  0.300 |ddv_scf|^2 =  1.163E-11

      iter #  12 total cpu time :    30.4 secs   av.it.:   6.4
      thresh= 3.411E-07 alpha_mix =  0.300 |ddv_scf|^2 =  4.376E-11

      iter #  13 total cpu time :    30.6 secs   av.it.:   4.9
      thresh= 6.615E-07 alpha_mix =  0.300 |ddv_scf|^2 =  6.225E-11

      iter #  14 total cpu time :    30.8 secs   av.it.:   4.6
      thresh= 7.890E-07 alpha_mix =  0.300 |ddv_scf|^2 =  1.730E-13

      iter #  15 total cpu time :    31.0 secs   av.it.:   6.0
      thresh= 4.160E-08 alpha_mix =  0.300 |ddv_scf|^2 =  2.241E-13

      iter #  16 total cpu time :    31.1 secs   av.it.:   5.9
      thresh= 4.734E-08 alpha_mix =  0.300 |ddv_scf|^2 =  1.590E-13

      iter #  17 total cpu time :    31.3 secs   av.it.:   4.3
      thresh= 3.988E-08 alpha_mix =  0.300 |ddv_scf|^2 =  6.591E-15

      iter #  18 total cpu time :    31.5 secs   av.it.:   5.7
      thresh= 8.119E-09 alpha_mix =  0.300 |ddv_scf|^2 =  7.691E-15

      iter #  19 total cpu time :    31.7 secs   av.it.:   3.9
      thresh= 8.770E-09 alpha_mix =  0.300 |ddv_scf|^2 =  4.915E-15

      iter #  20 total cpu time :    32.0 secs   av.it.:   5.2
      thresh= 7.011E-09 alpha_mix =  0.300 |ddv_scf|^2 =  2.557E-17

     End of self-consistent calculation

     Convergence has been achieved 


     Representation #   2 modes #   2   3

     Self-consistent Calculation

      iter #   1 total cpu time :    33.0 secs   av.it.:   4.8
      thresh= 1.000E-02 alpha_mix =  0.300 |ddv_scf|^2 =  1.545E-05

      iter #   2 total cpu time :    34.5 secs   av.it.:   6.5
      thresh= 3.930E-04 alpha_mix =  0.300 |ddv_scf|^2 =  1.001E-06

      iter #   3 total cpu time :    36.9 secs   av.it.:   7.0
      thresh= 1.000E-04 alpha_mix =  0.300 |ddv_scf|^2 =  1.496E-08

      iter #   4 total cpu time :    37.2 secs   av.it.:   7.3
      thresh= 1.223E-05 alpha_mix =  0.300 |ddv_scf|^2 =  1.456E-10

      iter #   5 total cpu time :    37.4 secs   av.it.:   6.8
      thresh= 1.207E-06 alpha_mix =  0.300 |ddv_scf|^2 =  4.909E-11

      iter #   6 total cpu time :    37.7 secs   av.it.:   7.1
      thresh= 7.007E-07 alpha_mix =  0.300 |ddv_scf|^2 =  3.400E-13

      iter #   7 total cpu time :    37.9 secs   av.it.:   7.8
      thresh= 5.831E-08 alpha_mix =  0.300 |ddv_scf|^2 =  4.679E-14

      iter #   8 total cpu time :    38.2 secs   av.it.:   7.5
      thresh= 2.163E-08 alpha_mix =  0.300 |ddv_scf|^2 =  2.900E-15

      iter #   9 total cpu time :    38.4 secs   av.it.:   6.6
      thresh= 5.385E-09 alpha_mix =  0.300 |ddv_scf|^2 =  1.231E-15

      iter #  10 total cpu time :    38.8 secs   av.it.:   7.4
      thresh= 3.509E-09 alpha_mix =  0.300 |ddv_scf|^2 =  4.087E-17

     End of self-consistent calculation

     Convergence has been achieved 
 
     Number of q in the star =    8
     List of q in the star:
          1  -0.083333333   0.083333333   0.083333333
          2   0.083333333   0.083333333   0.083333333
          3  -0.083333333  -0.083333333   0.083333333
          4   0.083333333  -0.083333333  -0.083333333
          5  -0.083333333   0.083333333  -0.083333333
          6   0.083333333   0.083333333  -0.083333333
          7   0.083333333  -0.083333333   0.083333333
          8  -0.083333333  -0.083333333  -0.083333333

     Diagonalizing the dynamical matrix

     q = (   -0.083333333   0.083333333   0.083333333 ) 

 **************************************************************************
     freq (    1) =       0.534214 [THz] =      17.819467 [cm-1]
     freq (    2) =       0.534214 [THz] =      17.819467 [cm-1]
     freq (    3) =       0.819238 [THz] =      27.326836 [cm-1]
 **************************************************************************

     Calculation of q =   -0.2500000   0.2500000  -0.0833333
     [opt_tetra]  Optimized tetrahedron method is used.
 
     Parallelization info
     --------------------
     sticks:   dense  smooth     PW     G-vecs:    dense   smooth      PW
     Min          54      54     18                  747      747     153
     Max          55      55     19                  750      750     156
     Sum         433     433    151                 5985     5985    1243
 
     Using Slab Decomposition
 

     Title: 
     Phonon frequency and deformation potential                                 


     bravais-lattice index     =            2
     lattice parameter (alat)  =       9.5194  a.u.
     unit-cell volume          =     215.6591 (a.u.)^3
     number of atoms/cell      =            1
     number of atomic types    =            1
     number of electrons       =        14.00
     number of Kohn-Sham states=           11
     kinetic-energy cutoff     =      35.0000  Ry
     charge density cutoff     =     140.0000  Ry
     Exchange-correlation= PBE
                           (   1   4   3   4   0   0   0)

     celldm(1)=   9.519393  celldm(2)=   0.000000  celldm(3)=   0.000000
     celldm(4)=   0.000000  celldm(5)=   0.000000  celldm(6)=   0.000000

     crystal axes: (cart. coord. in units of alat)
               a(1) = (  -0.500000   0.000000   0.500000 )  
               a(2) = (   0.000000   0.500000   0.500000 )  
               a(3) = (  -0.500000   0.500000   0.000000 )  

     reciprocal axes: (cart. coord. in units 2 pi/alat)
               b(1) = ( -1.000000 -1.000000  1.000000 )  
               b(2) = (  1.000000  1.000000  1.000000 )  
               b(3) = ( -1.000000  1.000000 -1.000000 )  


     PseudoPot. # 1 for Pb read from file:
     ./Pb_ONCV_PBE-1.2.upf
     MD5 check sum: 7f27c247474026287e0dbe0f3167d60b
     Pseudo is Norm-conserving, Zval = 14.0
     Generated using ONCVPSP code by D. R. Hamann
     Using radial grid of  602 points,  8 beta functions with: 
                l(1) =   0
                l(2) =   0
                l(3) =   1
                l(4) =   1
                l(5) =   2
                l(6) =   2
                l(7) =   3
                l(8) =   3

     atomic species   valence    mass     pseudopotential
        Pb            14.00   207.20000     Pb( 1.00)

     48 Sym. Ops., with inversion, found



   Cartesian axes

     site n.     atom                  positions (alat units)
         1           Pb  tau(   1) = (   0.0000000   0.0000000   0.0000000  )

     number of k points=  1872 (tetrahedron method)

     Number of k-points >= 100: set verbosity='high' to print them.

     Dense  grid:     5985 G-vectors     FFT dimensions: (  25,  25,  25)

     Estimated max dynamical RAM per process >       2.88 MB

     Estimated total dynamical RAM >       2.88 GB

     The potential is recalculated from file :
     ./_ph0/pwscf.q_2/pwscf.save/charge-density

     Starting wfcs are    0 atomic +   11 random wfcs

     Band Structure Calculation
     Davidson diagonalization with overlap

     ethr =  7.14E-11,  avg # of iterations = 21.2

     total cpu time spent up to now is        9.7 secs

     End of band structure calculation

     Number of k-points >= 100: set verbosity='high' to print the bands.

     the Fermi energy is    11.5438 ev

     Writing output data file ./_ph0/pwscf.q_2/pwscf.save/
 
     [dfpt_tetra]  Dos(E_F)[/Ry] :   0.7203970E+01

     Phonon frequency and deformation potential                                 

     bravais-lattice index     =            2
     lattice parameter (alat)  =       9.5194  a.u.
     unit-cell volume          =     215.6591 (a.u.)^3
     number of atoms/cell      =            1
     number of atomic types    =            1
     kinetic-energy cut-off    =      35.0000  Ry
     charge density cut-off    =     140.0000  Ry
     convergence threshold     =      1.0E-15
     beta                      =       0.3000
     number of iterations used =            4
     Exchange-correlation= PBE
                           (   1   4   3   4   0   0   0)


     celldm(1)=    9.51939  celldm(2)=    0.00000  celldm(3)=    0.00000
     celldm(4)=    0.00000  celldm(5)=    0.00000  celldm(6)=    0.00000

     crystal axes: (cart. coord. in units of alat)
               a(1) = ( -0.5000  0.0000  0.5000 )  
               a(2) = (  0.0000  0.5000  0.5000 )  
               a(3) = ( -0.5000  0.5000  0.0000 )  

     reciprocal axes: (cart. coord. in units 2 pi/alat)
               b(1) = ( -1.0000 -1.0000  1.0000 )  
               b(2) = (  1.0000  1.0000  1.0000 )  
               b(3) = ( -1.0000  1.0000 -1.0000 )  


     Atoms inside the unit cell: 

     Cartesian axes

     site n.  atom      mass           positions (alat units)
        1     Pb 207.2000   tau(    1) = (    0.00000    0.00000    0.00000  )

     Computing dynamical matrix for 
                    q = (  -0.2500000   0.2500000  -0.0833333 )
 
      2 Sym.Ops. (no q -> -q+G )


     G cutoff =  321.3563  (    748 G-vectors)     FFT grid: ( 25, 25, 25)
     number of k points=  1872

     PseudoPot. # 1 for Pb read from file:
     ./Pb_ONCV_PBE-1.2.upf
     MD5 check sum: 7f27c247474026287e0dbe0f3167d60b
     Pseudo is Norm-conserving, Zval = 14.0
     Generated using ONCVPSP code by D. R. Hamann
     Using radial grid of  602 points,  8 beta functions with: 
                l(1) =   0
                l(2) =   0
                l(3) =   1
                l(4) =   1
                l(5) =   2
                l(6) =   2
                l(7) =   3
                l(8) =   3


     Atomic displacements:
     There are    3 irreducible representations

     Representation     1      1 modes -  To be done

     Representation     2      1 modes -  To be done

     Representation     3      1 modes -  To be done



     Alpha used in Ewald sum =   1.4000
     PHONON       :     22.15s CPU     44.09s WALL



     Representation #   1 mode #   1

     Self-consistent Calculation

      iter #   1 total cpu time :    44.5 secs   av.it.:   5.3
      thresh= 1.000E-02 alpha_mix =  0.300 |ddv_scf|^2 =  9.630E-02

      iter #   2 total cpu time :    44.8 secs   av.it.:   6.2
      thresh= 1.000E-02 alpha_mix =  0.300 |ddv_scf|^2 =  1.430E+00

      iter #   3 total cpu time :    45.2 secs   av.it.:   5.9
      thresh= 1.000E-02 alpha_mix =  0.300 |ddv_scf|^2 =  2.710E-05

      iter #   4 total cpu time :    45.5 secs   av.it.:   6.0
      thresh= 5.206E-04 alpha_mix =  0.300 |ddv_scf|^2 =  7.183E-07

      iter #   5 total cpu time :    45.8 secs   av.it.:   5.8
      thresh= 8.476E-05 alpha_mix =  0.300 |ddv_scf|^2 =  2.355E-08

      iter #   6 total cpu time :    46.0 secs   av.it.:   7.3
      thresh= 1.535E-05 alpha_mix =  0.300 |ddv_scf|^2 =  9.578E-09

      iter #   7 total cpu time :    46.3 secs   av.it.:   5.6
      thresh= 9.787E-06 alpha_mix =  0.300 |ddv_scf|^2 =  2.471E-09

      iter #   8 total cpu time :    46.5 secs   av.it.:   4.1
      thresh= 4.971E-06 alpha_mix =  0.300 |ddv_scf|^2 =  4.339E-10

      iter #   9 total cpu time :    46.7 secs   av.it.:   6.2
      thresh= 2.083E-06 alpha_mix =  0.300 |ddv_scf|^2 =  6.854E-11

      iter #  10 total cpu time :    46.9 secs   av.it.:   7.1
      thresh= 8.279E-07 alpha_mix =  0.300 |ddv_scf|^2 =  7.702E-12

      iter #  11 total cpu time :    47.2 secs   av.it.:   6.1
      thresh= 2.775E-07 alpha_mix =  0.300 |ddv_scf|^2 =  1.019E-12

      iter #  12 total cpu time :    47.4 secs   av.it.:   6.7
      thresh= 1.010E-07 alpha_mix =  0.300 |ddv_scf|^2 =  3.800E-13

      iter #  13 total cpu time :    47.7 secs   av.it.:   6.5
      thresh= 6.165E-08 alpha_mix =  0.300 |ddv_scf|^2 =  4.863E-13

      iter #  14 total cpu time :    47.9 secs   av.it.:   6.3
      thresh= 6.974E-08 alpha_mix =  0.300 |ddv_scf|^2 =  8.712E-13

      iter #  15 total cpu time :    48.1 secs   av.it.:   5.7
      thresh= 9.334E-08 alpha_mix =  0.300 |ddv_scf|^2 =  1.869E-14

      iter #  16 total cpu time :    48.3 secs   av.it.:   6.4
      thresh= 1.367E-08 alpha_mix =  0.300 |ddv_scf|^2 =  4.218E-15

      iter #  17 total cpu time :    48.7 secs   av.it.:   6.9
      thresh= 6.495E-09 alpha_mix =  0.300 |ddv_scf|^2 =  5.231E-16

     End of self-consistent calculation

     Convergence has been achieved 


     Representation #   2 mode #   2

     Self-consistent Calculation

      iter #   1 total cpu time :    52.4 secs   av.it.:   5.0
      thresh= 1.000E-02 alpha_mix =  0.300 |ddv_scf|^2 =  1.557E-02

      iter #   2 total cpu time :    55.2 secs   av.it.:   5.4
      thresh= 1.000E-02 alpha_mix =  0.300 |ddv_scf|^2 =  2.302E-01

      iter #   3 total cpu time :    56.0 secs   av.it.:   5.0
      thresh= 1.000E-02 alpha_mix =  0.300 |ddv_scf|^2 =  6.494E-06

      iter #   4 total cpu time :    57.0 secs   av.it.:   6.7
      thresh= 2.548E-04 alpha_mix =  0.300 |ddv_scf|^2 =  1.473E-07

      iter #   5 total cpu time :    57.4 secs   av.it.:   6.4
      thresh= 3.838E-05 alpha_mix =  0.300 |ddv_scf|^2 =  2.303E-08

      iter #   6 total cpu time :    57.7 secs   av.it.:   7.2
      thresh= 1.518E-05 alpha_mix =  0.300 |ddv_scf|^2 =  5.845E-09

      iter #   7 total cpu time :    57.9 secs   av.it.:   4.6
      thresh= 7.645E-06 alpha_mix =  0.300 |ddv_scf|^2 =  3.978E-09

      iter #   8 total cpu time :    58.2 secs   av.it.:   5.1
      thresh= 6.307E-06 alpha_mix =  0.300 |ddv_scf|^2 =  1.250E-10

      iter #   9 total cpu time :    58.4 secs   av.it.:   6.6
      thresh= 1.118E-06 alpha_mix =  0.300 |ddv_scf|^2 =  5.893E-11

      iter #  10 total cpu time :    58.7 secs   av.it.:   7.1
      thresh= 7.676E-07 alpha_mix =  0.300 |ddv_scf|^2 =  4.587E-12

      iter #  11 total cpu time :    59.0 secs   av.it.:   6.5
      thresh= 2.142E-07 alpha_mix =  0.300 |ddv_scf|^2 =  6.224E-13

      iter #  12 total cpu time :    59.3 secs   av.it.:   6.6
      thresh= 7.889E-08 alpha_mix =  0.300 |ddv_scf|^2 =  3.917E-13

      iter #  13 total cpu time :    59.5 secs   av.it.:   6.3
      thresh= 6.259E-08 alpha_mix =  0.300 |ddv_scf|^2 =  8.697E-13

      iter #  14 total cpu time :    59.8 secs   av.it.:   5.8
      thresh= 9.326E-08 alpha_mix =  0.300 |ddv_scf|^2 =  2.289E-13

      iter #  15 total cpu time :    60.0 secs   av.it.:   6.2
      thresh= 4.784E-08 alpha_mix =  0.300 |ddv_scf|^2 =  7.153E-15

      iter #  16 total cpu time :    61.2 secs   av.it.:   6.4
      thresh= 8.458E-09 alpha_mix =  0.300 |ddv_scf|^2 =  3.160E-15

      iter #  17 total cpu time :    61.5 secs   av.it.:   6.8
      thresh= 5.621E-09 alpha_mix =  0.300 |ddv_scf|^2 =  1.579E-16

     End of self-consistent calculation

     Convergence has been achieved 


     Representation #   3 mode #   3

     Self-consistent Calculation

      iter #   1 total cpu time :    64.0 secs   av.it.:   4.7
      thresh= 1.000E-02 alpha_mix =  0.300 |ddv_scf|^2 =  6.297E-05

      iter #   2 total cpu time :    64.2 secs   av.it.:   5.8
      thresh= 7.935E-04 alpha_mix =  0.300 |ddv_scf|^2 =  4.018E-06

      iter #   3 total cpu time :    64.5 secs   av.it.:   6.3
      thresh= 2.005E-04 alpha_mix =  0.300 |ddv_scf|^2 =  5.998E-08

      iter #   4 total cpu time :    64.7 secs   av.it.:   6.7
      thresh= 2.449E-05 alpha_mix =  0.300 |ddv_scf|^2 =  5.282E-10

      iter #   5 total cpu time :    65.0 secs   av.it.:   6.1
      thresh= 2.298E-06 alpha_mix =  0.300 |ddv_scf|^2 =  1.891E-10

      iter #   6 total cpu time :    65.2 secs   av.it.:   6.4
      thresh= 1.375E-06 alpha_mix =  0.300 |ddv_scf|^2 =  1.165E-12

      iter #   7 total cpu time :    65.7 secs   av.it.:   7.1
      thresh= 1.080E-07 alpha_mix =  0.300 |ddv_scf|^2 =  1.767E-13

      iter #   8 total cpu time :    65.9 secs   av.it.:   6.9
      thresh= 4.203E-08 alpha_mix =  0.300 |ddv_scf|^2 =  9.517E-15

      iter #   9 total cpu time :    66.2 secs   av.it.:   6.1
      thresh= 9.756E-09 alpha_mix =  0.300 |ddv_scf|^2 =  4.203E-15

      iter #  10 total cpu time :    66.5 secs   av.it.:   6.8
      thresh= 6.483E-09 alpha_mix =  0.300 |ddv_scf|^2 =  4.849E-17

     End of self-consistent calculation

     Convergence has been achieved 
 
     Number of q in the star =   24
     List of q in the star:
          1  -0.250000000   0.250000000  -0.083333333
          2   0.083333333   0.250000000   0.250000000
          3  -0.250000000  -0.083333333   0.250000000
          4   0.250000000   0.250000000  -0.083333333
          5  -0.250000000  -0.250000000  -0.083333333
          6  -0.083333333  -0.250000000  -0.250000000
          7   0.083333333  -0.250000000   0.250000000
          8  -0.083333333   0.250000000   0.250000000
          9   0.083333333   0.250000000  -0.250000000
         10   0.250000000  -0.083333333   0.250000000
         11   0.250000000   0.083333333  -0.250000000
         12  -0.250000000  -0.083333333  -0.250000000
         13  -0.250000000   0.083333333   0.250000000
         14   0.250000000  -0.083333333  -0.250000000
         15   0.250000000  -0.250000000  -0.083333333
         16   0.250000000   0.083333333   0.250000000
         17  -0.250000000   0.083333333  -0.250000000
         18  -0.083333333  -0.250000000   0.250000000
         19  -0.083333333   0.250000000  -0.250000000
         20   0.250000000   0.250000000   0.083333333
         21   0.083333333  -0.250000000  -0.250000000
         22   0.250000000  -0.250000000   0.083333333
         23  -0.250000000   0.250000000   0.083333333
         24  -0.250000000  -0.250000000   0.083333333

     Diagonalizing the dynamical matrix

     q = (   -0.250000000   0.250000000  -0.083333333 ) 

 **************************************************************************
     freq (    1) =       0.723598 [THz] =      24.136617 [cm-1]
     freq (    2) =       0.917940 [THz] =      30.619171 [cm-1]
     freq (    3) =       1.533544 [THz] =      51.153506 [cm-1]
 **************************************************************************

     Calculation of q =   -0.4166667   0.4166667  -0.2500000
     [opt_tetra]  Optimized tetrahedron method is used.
 
     Parallelization info
     --------------------
     sticks:   dense  smooth     PW     G-vecs:    dense   smooth      PW
     Min          54      54     20                  747      747     170
     Max          55      55     21                  750      750     172
     Sum         433     433    163                 5985     5985    1363
 
     Using Slab Decomposition
 

     Title: 
     Phonon frequency and deformation potential                                 


     bravais-lattice index     =            2
     lattice parameter (alat)  =       9.5194  a.u.
     unit-cell volume          =     215.6591 (a.u.)^3
     number of atoms/cell      =            1
     number of atomic types    =            1
     number of electrons       =        14.00
     number of Kohn-Sham states=           11
     kinetic-energy cutoff     =      35.0000  Ry
     charge density cutoff     =     140.0000  Ry
     Exchange-correlation= PBE
                           (   1   4   3   4   0   0   0)

     celldm(1)=   9.519393  celldm(2)=   0.000000  celldm(3)=   0.000000
     celldm(4)=   0.000000  celldm(5)=   0.000000  celldm(6)=   0.000000

     crystal axes: (cart. coord. in units of alat)
               a(1) = (  -0.500000   0.000000   0.500000 )  
               a(2) = (   0.000000   0.500000   0.500000 )  
               a(3) = (  -0.500000   0.500000   0.000000 )  

     reciprocal axes: (cart. coord. in units 2 pi/alat)
               b(1) = ( -1.000000 -1.000000  1.000000 )  
               b(2) = (  1.000000  1.000000  1.000000 )  
               b(3) = ( -1.000000  1.000000 -1.000000 )  


     PseudoPot. # 1 for Pb read from file:
     ./Pb_ONCV_PBE-1.2.upf
     MD5 check sum: 7f27c247474026287e0dbe0f3167d60b
     Pseudo is Norm-conserving, Zval = 14.0
     Generated using ONCVPSP code by D. R. Hamann
     Using radial grid of  602 points,  8 beta functions with: 
                l(1) =   0
                l(2) =   0
                l(3) =   1
                l(4) =   1
                l(5) =   2
                l(6) =   2
                l(7) =   3
                l(8) =   3

     atomic species   valence    mass     pseudopotential
        Pb            14.00   207.20000     Pb( 1.00)

     48 Sym. Ops., with inversion, found



   Cartesian axes

     site n.     atom                  positions (alat units)
         1           Pb  tau(   1) = (   0.0000000   0.0000000   0.0000000  )

     number of k points=  1872 (tetrahedron method)

     Number of k-points >= 100: set verbosity='high' to print them.

     Dense  grid:     5985 G-vectors     FFT dimensions: (  25,  25,  25)

     Estimated max dynamical RAM per process >       2.92 MB

     Estimated total dynamical RAM >       2.92 GB

     The potential is recalculated from file :
     ./_ph0/pwscf.q_3/pwscf.save/charge-density

     Starting wfcs are    0 atomic +   11 random wfcs

     Band Structure Calculation
     Davidson diagonalization with overlap

     ethr =  7.14E-11,  avg # of iterations = 21.3

     total cpu time spent up to now is       12.0 secs

     End of band structure calculation

     Number of k-points >= 100: set verbosity='high' to print the bands.

     the Fermi energy is    11.5438 ev

     Writing output data file ./_ph0/pwscf.q_3/pwscf.save/
 
     [dfpt_tetra]  Dos(E_F)[/Ry] :   0.7203970E+01

     Phonon frequency and deformation potential                                 

     bravais-lattice index     =            2
     lattice parameter (alat)  =       9.5194  a.u.
     unit-cell volume          =     215.6591 (a.u.)^3
     number of atoms/cell      =            1
     number of atomic types    =            1
     kinetic-energy cut-off    =      35.0000  Ry
     charge density cut-off    =     140.0000  Ry
     convergence threshold     =      1.0E-15
     beta                      =       0.3000
     number of iterations used =            4
     Exchange-correlation= PBE
                           (   1   4   3   4   0   0   0)


     celldm(1)=    9.51939  celldm(2)=    0.00000  celldm(3)=    0.00000
     celldm(4)=    0.00000  celldm(5)=    0.00000  celldm(6)=    0.00000

     crystal axes: (cart. coord. in units of alat)
               a(1) = ( -0.5000  0.0000  0.5000 )  
               a(2) = (  0.0000  0.5000  0.5000 )  
               a(3) = ( -0.5000  0.5000  0.0000 )  

     reciprocal axes: (cart. coord. in units 2 pi/alat)
               b(1) = ( -1.0000 -1.0000  1.0000 )  
               b(2) = (  1.0000  1.0000  1.0000 )  
               b(3) = ( -1.0000  1.0000 -1.0000 )  


     Atoms inside the unit cell: 

     Cartesian axes

     site n.  atom      mass           positions (alat units)
        1     Pb 207.2000   tau(    1) = (    0.00000    0.00000    0.00000  )

     Computing dynamical matrix for 
                    q = (  -0.4166667   0.4166667  -0.2500000 )
 
      2 Sym.Ops. (no q -> -q+G )


     G cutoff =  321.3563  (    749 G-vectors)     FFT grid: ( 25, 25, 25)
     number of k points=  1872

     PseudoPot. # 1 for Pb read from file:
     ./Pb_ONCV_PBE-1.2.upf
     MD5 check sum: 7f27c247474026287e0dbe0f3167d60b
     Pseudo is Norm-conserving, Zval = 14.0
     Generated using ONCVPSP code by D. R. Hamann
     Using radial grid of  602 points,  8 beta functions with: 
                l(1) =   0
                l(2) =   0
                l(3) =   1
                l(4) =   1
                l(5) =   2
                l(6) =   2
                l(7) =   3
                l(8) =   3


     Atomic displacements:
     There are    3 irreducible representations

     Representation     1      1 modes -  To be done

     Representation     2      1 modes -  To be done

     Representation     3      1 modes -  To be done



     Alpha used in Ewald sum =   1.4000
     PHONON       :     43.80s CPU   1m10.84s WALL



     Representation #   1 mode #   1

     Self-consistent Calculation

      iter #   1 total cpu time :    71.1 secs   av.it.:   5.1
      thresh= 1.000E-02 alpha_mix =  0.300 |ddv_scf|^2 =  4.561E-03

      iter #   2 total cpu time :    71.4 secs   av.it.:   5.4
      thresh= 6.753E-03 alpha_mix =  0.300 |ddv_scf|^2 =  3.621E-03

      iter #   3 total cpu time :    71.6 secs   av.it.:   4.9
      thresh= 6.017E-03 alpha_mix =  0.300 |ddv_scf|^2 =  1.220E-06

      iter #   4 total cpu time :    71.9 secs   av.it.:   6.7
      thresh= 1.104E-04 alpha_mix =  0.300 |ddv_scf|^2 =  4.271E-08

      iter #   5 total cpu time :    72.1 secs   av.it.:   6.9
      thresh= 2.067E-05 alpha_mix =  0.300 |ddv_scf|^2 =  1.163E-08

      iter #   6 total cpu time :    72.4 secs   av.it.:   7.1
      thresh= 1.079E-05 alpha_mix =  0.300 |ddv_scf|^2 =  3.900E-10

      iter #   7 total cpu time :    72.6 secs   av.it.:   7.0
      thresh= 1.975E-06 alpha_mix =  0.300 |ddv_scf|^2 =  5.744E-11

      iter #   8 total cpu time :    72.9 secs   av.it.:   6.9
      thresh= 7.579E-07 alpha_mix =  0.300 |ddv_scf|^2 =  1.090E-11

      iter #   9 total cpu time :    73.1 secs   av.it.:   6.6
      thresh= 3.302E-07 alpha_mix =  0.300 |ddv_scf|^2 =  4.849E-12

      iter #  10 total cpu time :    73.3 secs   av.it.:   6.4
      thresh= 2.202E-07 alpha_mix =  0.300 |ddv_scf|^2 =  9.281E-13

      iter #  11 total cpu time :    73.5 secs   av.it.:   6.7
      thresh= 9.634E-08 alpha_mix =  0.300 |ddv_scf|^2 =  2.288E-13

      iter #  12 total cpu time :    73.8 secs   av.it.:   6.5
      thresh= 4.784E-08 alpha_mix =  0.300 |ddv_scf|^2 =  7.066E-14

      iter #  13 total cpu time :    74.0 secs   av.it.:   6.3
      thresh= 2.658E-08 alpha_mix =  0.300 |ddv_scf|^2 =  1.425E-14

      iter #  14 total cpu time :    74.3 secs   av.it.:   6.9
      thresh= 1.194E-08 alpha_mix =  0.300 |ddv_scf|^2 =  1.830E-15

      iter #  15 total cpu time :    74.8 secs   av.it.:   6.7
      thresh= 4.278E-09 alpha_mix =  0.300 |ddv_scf|^2 =  7.262E-16

     End of self-consistent calculation

     Convergence has been achieved 


     Representation #   2 mode #   2

     Self-consistent Calculation

      iter #   1 total cpu time :    75.7 secs   av.it.:   4.9
      thresh= 1.000E-02 alpha_mix =  0.300 |ddv_scf|^2 =  2.825E-04

      iter #   2 total cpu time :    75.9 secs   av.it.:   5.8
      thresh= 1.681E-03 alpha_mix =  0.300 |ddv_scf|^2 =  1.685E-04

      iter #   3 total cpu time :    76.1 secs   av.it.:   5.1
      thresh= 1.298E-03 alpha_mix =  0.300 |ddv_scf|^2 =  2.253E-06

      iter #   4 total cpu time :    76.4 secs   av.it.:   6.2
      thresh= 1.501E-04 alpha_mix =  0.300 |ddv_scf|^2 =  4.424E-08

      iter #   5 total cpu time :    76.6 secs   av.it.:   6.7
      thresh= 2.103E-05 alpha_mix =  0.300 |ddv_scf|^2 =  1.193E-08

      iter #   6 total cpu time :    76.9 secs   av.it.:   7.1
      thresh= 1.092E-05 alpha_mix =  0.300 |ddv_scf|^2 =  2.042E-10

      iter #   7 total cpu time :    77.1 secs   av.it.:   6.6
      thresh= 1.429E-06 alpha_mix =  0.300 |ddv_scf|^2 =  8.657E-11

      iter #   8 total cpu time :    77.4 secs   av.it.:   7.0
      thresh= 9.304E-07 alpha_mix =  0.300 |ddv_scf|^2 =  7.782E-12

      iter #   9 total cpu time :    77.6 secs   av.it.:   6.0
      thresh= 2.790E-07 alpha_mix =  0.300 |ddv_scf|^2 =  1.721E-12

      iter #  10 total cpu time :    77.8 secs   av.it.:   6.4
      thresh= 1.312E-07 alpha_mix =  0.300 |ddv_scf|^2 =  4.463E-13

      iter #  11 total cpu time :    78.1 secs   av.it.:   7.1
      thresh= 6.680E-08 alpha_mix =  0.300 |ddv_scf|^2 =  7.985E-14

      iter #  12 total cpu time :    78.3 secs   av.it.:   6.7
      thresh= 2.826E-08 alpha_mix =  0.300 |ddv_scf|^2 =  1.915E-14

      iter #  13 total cpu time :    78.5 secs   av.it.:   7.0
      thresh= 1.384E-08 alpha_mix =  0.300 |ddv_scf|^2 =  2.212E-15

      iter #  14 total cpu time :    78.9 secs   av.it.:   6.6
      thresh= 4.703E-09 alpha_mix =  0.300 |ddv_scf|^2 =  7.173E-16

     End of self-consistent calculation

     Convergence has been achieved 


     Representation #   3 mode #   3

     Self-consistent Calculation

      iter #   1 total cpu time :    79.7 secs   av.it.:   4.8
      thresh= 1.000E-02 alpha_mix =  0.300 |ddv_scf|^2 =  6.993E-05

      iter #   2 total cpu time :    79.9 secs   av.it.:   5.8
      thresh= 8.363E-04 alpha_mix =  0.300 |ddv_scf|^2 =  4.173E-06

      iter #   3 total cpu time :    80.1 secs   av.it.:   6.3
      thresh= 2.043E-04 alpha_mix =  0.300 |ddv_scf|^2 =  6.172E-08

      iter #   4 total cpu time :    80.4 secs   av.it.:   6.7
      thresh= 2.484E-05 alpha_mix =  0.300 |ddv_scf|^2 =  6.443E-10

      iter #   5 total cpu time :    81.0 secs   av.it.:   6.2
      thresh= 2.538E-06 alpha_mix =  0.300 |ddv_scf|^2 =  2.360E-10

      iter #   6 total cpu time :    81.3 secs   av.it.:   6.6
      thresh= 1.536E-06 alpha_mix =  0.300 |ddv_scf|^2 =  2.455E-12

      iter #   7 total cpu time :    81.6 secs   av.it.:   7.1
      thresh= 1.567E-07 alpha_mix =  0.300 |ddv_scf|^2 =  3.318E-13

      iter #   8 total cpu time :    81.9 secs   av.it.:   6.6
      thresh= 5.760E-08 alpha_mix =  0.300 |ddv_scf|^2 =  1.323E-14

      iter #   9 total cpu time :    82.1 secs   av.it.:   6.3
      thresh= 1.150E-08 alpha_mix =  0.300 |ddv_scf|^2 =  5.921E-15

      iter #  10 total cpu time :    82.7 secs   av.it.:   6.9
      thresh= 7.695E-09 alpha_mix =  0.300 |ddv_scf|^2 =  5.394E-17

     End of self-consistent calculation

     Convergence has been achieved 
 
     Number of q in the star =   24
     List of q in the star:
          1  -0.416666667   0.416666667  -0.250000000
          2   0.250000000   0.416666667   0.416666667
          3  -0.416666667  -0.250000000   0.416666667
          4   0.416666667   0.416666667  -0.250000000
          5  -0.416666667  -0.416666667  -0.250000000
          6  -0.250000000  -0.416666667  -0.416666667
          7   0.250000000  -0.416666667   0.416666667
          8  -0.250000000   0.416666667   0.416666667
          9   0.250000000   0.416666667  -0.416666667
         10   0.416666667  -0.250000000   0.416666667
         11   0.416666667   0.250000000  -0.416666667
         12  -0.416666667  -0.250000000  -0.416666667
         13  -0.416666667   0.250000000   0.416666667
         14   0.416666667  -0.250000000  -0.416666667
         15   0.416666667  -0.416666667  -0.250000000
         16   0.416666667   0.250000000   0.416666667
         17  -0.416666667   0.250000000  -0.416666667
         18  -0.250000000  -0.416666667   0.416666667
         19  -0.250000000   0.416666667  -0.416666667
         20   0.416666667   0.416666667   0.250000000
         21   0.250000000  -0.416666667  -0.416666667
         22   0.416666667  -0.416666667   0.250000000
         23  -0.416666667   0.416666667   0.250000000
         24  -0.416666667  -0.416666667   0.250000000

     Diagonalizing the dynamical matrix

     q = (   -0.416666667   0.416666667  -0.250000000 ) 

 **************************************************************************
     freq (    1) =       1.031188 [THz] =      34.396736 [cm-1]
     freq (    2) =       1.038096 [THz] =      34.627154 [cm-1]
     freq (    3) =       1.885061 [THz] =      62.878862 [cm-1]
 **************************************************************************

     Calculation of q =    0.4166667  -0.4166667   0.5833333
     [opt_tetra]  Optimized tetrahedron method is used.
 
     Parallelization info
     --------------------
     sticks:   dense  smooth     PW     G-vecs:    dense   smooth      PW
     Min          54      54     20                  747      747     175
     Max          55      55     21                  750      750     178
     Sum         433     433    163                 5985     5985    1411
 
     Using Slab Decomposition
 

     Title: 
     Phonon frequency and deformation potential                                 


     bravais-lattice index     =            2
     lattice parameter (alat)  =       9.5194  a.u.
     unit-cell volume          =     215.6591 (a.u.)^3
     number of atoms/cell      =            1
     number of atomic types    =            1
     number of electrons       =        14.00
     number of Kohn-Sham states=           11
     kinetic-energy cutoff     =      35.0000  Ry
     charge density cutoff     =     140.0000  Ry
     Exchange-correlation= PBE
                           (   1   4   3   4   0   0   0)

     celldm(1)=   9.519393  celldm(2)=   0.000000  celldm(3)=   0.000000
     celldm(4)=   0.000000  celldm(5)=   0.000000  celldm(6)=   0.000000

     crystal axes: (cart. coord. in units of alat)
               a(1) = (  -0.500000   0.000000   0.500000 )  
               a(2) = (   0.000000   0.500000   0.500000 )  
               a(3) = (  -0.500000   0.500000   0.000000 )  

     reciprocal axes: (cart. coord. in units 2 pi/alat)
               b(1) = ( -1.000000 -1.000000  1.000000 )  
               b(2) = (  1.000000  1.000000  1.000000 )  
               b(3) = ( -1.000000  1.000000 -1.000000 )  


     PseudoPot. # 1 for Pb read from file:
     ./Pb_ONCV_PBE-1.2.upf
     MD5 check sum: 7f27c247474026287e0dbe0f3167d60b
     Pseudo is Norm-conserving, Zval = 14.0
     Generated using ONCVPSP code by D. R. Hamann
     Using radial grid of  602 points,  8 beta functions with: 
                l(1) =   0
                l(2) =   0
                l(3) =   1
                l(4) =   1
                l(5) =   2
                l(6) =   2
                l(7) =   3
                l(8) =   3

     atomic species   valence    mass     pseudopotential
        Pb            14.00   207.20000     Pb( 1.00)

     48 Sym. Ops., with inversion, found



   Cartesian axes

     site n.     atom                  positions (alat units)
         1           Pb  tau(   1) = (   0.0000000   0.0000000   0.0000000  )

     number of k points=  1872 (tetrahedron method)

     Number of k-points >= 100: set verbosity='high' to print them.

     Dense  grid:     5985 G-vectors     FFT dimensions: (  25,  25,  25)

     Estimated max dynamical RAM per process >       2.94 MB

     Estimated total dynamical RAM >       2.94 GB

     The potential is recalculated from file :
     ./_ph0/pwscf.q_4/pwscf.save/charge-density

     Starting wfcs are    0 atomic +   11 random wfcs

     Band Structure Calculation
     Davidson diagonalization with overlap

     ethr =  7.14E-11,  avg # of iterations = 21.2

     total cpu time spent up to now is       14.1 secs

     End of band structure calculation

     Number of k-points >= 100: set verbosity='high' to print the bands.

     the Fermi energy is    11.5438 ev

     Writing output data file ./_ph0/pwscf.q_4/pwscf.save/
 
     [dfpt_tetra]  Dos(E_F)[/Ry] :   0.7203970E+01

     Phonon frequency and deformation potential                                 

     bravais-lattice index     =            2
     lattice parameter (alat)  =       9.5194  a.u.
     unit-cell volume          =     215.6591 (a.u.)^3
     number of atoms/cell      =            1
     number of atomic types    =            1
     kinetic-energy cut-off    =      35.0000  Ry
     charge density cut-off    =     140.0000  Ry
     convergence threshold     =      1.0E-15
     beta                      =       0.3000
     number of iterations used =            4
     Exchange-correlation= PBE
                           (   1   4   3   4   0   0   0)


     celldm(1)=    9.51939  celldm(2)=    0.00000  celldm(3)=    0.00000
     celldm(4)=    0.00000  celldm(5)=    0.00000  celldm(6)=    0.00000

     crystal axes: (cart. coord. in units of alat)
               a(1) = ( -0.5000  0.0000  0.5000 )  
               a(2) = (  0.0000  0.5000  0.5000 )  
               a(3) = ( -0.5000  0.5000  0.0000 )  

     reciprocal axes: (cart. coord. in units 2 pi/alat)
               b(1) = ( -1.0000 -1.0000  1.0000 )  
               b(2) = (  1.0000  1.0000  1.0000 )  
               b(3) = ( -1.0000  1.0000 -1.0000 )  


     Atoms inside the unit cell: 

     Cartesian axes

     site n.  atom      mass           positions (alat units)
        1     Pb 207.2000   tau(    1) = (    0.00000    0.00000    0.00000  )

     Computing dynamical matrix for 
                    q = (   0.4166667  -0.4166667   0.5833333 )
 
      2 Sym.Ops. (no q -> -q+G )


     G cutoff =  321.3563  (    749 G-vectors)     FFT grid: ( 25, 25, 25)
     number of k points=  1872

     PseudoPot. # 1 for Pb read from file:
     ./Pb_ONCV_PBE-1.2.upf
     MD5 check sum: 7f27c247474026287e0dbe0f3167d60b
     Pseudo is Norm-conserving, Zval = 14.0
     Generated using ONCVPSP code by D. R. Hamann
     Using radial grid of  602 points,  8 beta functions with: 
                l(1) =   0
                l(2) =   0
                l(3) =   1
                l(4) =   1
                l(5) =   2
                l(6) =   2
                l(7) =   3
                l(8) =   3


     Atomic displacements:
     There are    3 irreducible representations

     Representation     1      1 modes -  To be done

     Representation     2      1 modes -  To be done

     Representation     3      1 modes -  To be done



     Alpha used in Ewald sum =   1.4000
     PHONON       :     58.27s CPU   1m29.89s WALL



     Representation #   1 mode #   1

     Self-consistent Calculation

      iter #   1 total cpu time :    90.2 secs   av.it.:   5.0
      thresh= 1.000E-02 alpha_mix =  0.300 |ddv_scf|^2 =  1.504E-03

      iter #   2 total cpu time :    90.5 secs   av.it.:   5.6
      thresh= 3.878E-03 alpha_mix =  0.300 |ddv_scf|^2 =  8.968E-05

      iter #   3 total cpu time :    90.8 secs   av.it.:   5.4
      thresh= 9.470E-04 alpha_mix =  0.300 |ddv_scf|^2 =  1.026E-07

      iter #   4 total cpu time :    91.0 secs   av.it.:   6.0
      thresh= 3.204E-05 alpha_mix =  0.300 |ddv_scf|^2 =  3.096E-08

      iter #   5 total cpu time :    91.3 secs   av.it.:   6.8
      thresh= 1.760E-05 alpha_mix =  0.300 |ddv_scf|^2 =  8.593E-10

      iter #   6 total cpu time :    91.6 secs   av.it.:   6.9
      thresh= 2.931E-06 alpha_mix =  0.300 |ddv_scf|^2 =  2.900E-10

      iter #   7 total cpu time :    91.8 secs   av.it.:   6.7
      thresh= 1.703E-06 alpha_mix =  0.300 |ddv_scf|^2 =  2.834E-11

      iter #   8 total cpu time :    92.0 secs   av.it.:   6.5
      thresh= 5.324E-07 alpha_mix =  0.300 |ddv_scf|^2 =  2.945E-12

      iter #   9 total cpu time :    92.3 secs   av.it.:   6.7
      thresh= 1.716E-07 alpha_mix =  0.300 |ddv_scf|^2 =  3.350E-13

      iter #  10 total cpu time :    92.5 secs   av.it.:   7.1
      thresh= 5.788E-08 alpha_mix =  0.300 |ddv_scf|^2 =  3.295E-14

      iter #  11 total cpu time :    92.8 secs   av.it.:   6.5
      thresh= 1.815E-08 alpha_mix =  0.300 |ddv_scf|^2 =  1.217E-14

      iter #  12 total cpu time :    93.0 secs   av.it.:   6.8
      thresh= 1.103E-08 alpha_mix =  0.300 |ddv_scf|^2 =  1.273E-15

      iter #  13 total cpu time :    93.4 secs   av.it.:   7.0
      thresh= 3.567E-09 alpha_mix =  0.300 |ddv_scf|^2 =  4.726E-17

     End of self-consistent calculation

     Convergence has been achieved 


     Representation #   2 mode #   2

     Self-consistent Calculation

      iter #   1 total cpu time :    94.1 secs   av.it.:   4.9
      thresh= 1.000E-02 alpha_mix =  0.300 |ddv_scf|^2 =  1.174E-04

      iter #   2 total cpu time :    94.3 secs   av.it.:   5.9
      thresh= 1.083E-03 alpha_mix =  0.300 |ddv_scf|^2 =  6.596E-06

      iter #   3 total cpu time :    94.6 secs   av.it.:   6.4
      thresh= 2.568E-04 alpha_mix =  0.300 |ddv_scf|^2 =  4.209E-07

      iter #   4 total cpu time :    94.8 secs   av.it.:   6.1
      thresh= 6.487E-05 alpha_mix =  0.300 |ddv_scf|^2 =  3.570E-08

      iter #   5 total cpu time :    95.1 secs   av.it.:   6.3
      thresh= 1.889E-05 alpha_mix =  0.300 |ddv_scf|^2 =  1.328E-08

      iter #   6 total cpu time :    95.4 secs   av.it.:   7.1
      thresh= 1.152E-05 alpha_mix =  0.300 |ddv_scf|^2 =  1.786E-10

      iter #   7 total cpu time :    96.0 secs   av.it.:   6.5
      thresh= 1.337E-06 alpha_mix =  0.300 |ddv_scf|^2 =  8.021E-11

      iter #   8 total cpu time :    98.8 secs   av.it.:   7.1
      thresh= 8.956E-07 alpha_mix =  0.300 |ddv_scf|^2 =  1.027E-12

      iter #   9 total cpu time :    99.1 secs   av.it.:   7.2
      thresh= 1.013E-07 alpha_mix =  0.300 |ddv_scf|^2 =  1.567E-13

      iter #  10 total cpu time :    99.4 secs   av.it.:   7.1
      thresh= 3.959E-08 alpha_mix =  0.300 |ddv_scf|^2 =  2.023E-14

      iter #  11 total cpu time :    99.6 secs   av.it.:   6.6
      thresh= 1.422E-08 alpha_mix =  0.300 |ddv_scf|^2 =  6.593E-15

      iter #  12 total cpu time :    99.9 secs   av.it.:   7.0
      thresh= 8.120E-09 alpha_mix =  0.300 |ddv_scf|^2 =  4.092E-16

     End of self-consistent calculation

     Convergence has been achieved 


     Representation #   3 mode #   3

     Self-consistent Calculation

      iter #   1 total cpu time :   100.5 secs   av.it.:   4.8
      thresh= 1.000E-02 alpha_mix =  0.300 |ddv_scf|^2 =  7.620E-05

      iter #   2 total cpu time :   100.8 secs   av.it.:   5.8
      thresh= 8.729E-04 alpha_mix =  0.300 |ddv_scf|^2 =  4.289E-06

      iter #   3 total cpu time :   101.0 secs   av.it.:   6.2
      thresh= 2.071E-04 alpha_mix =  0.300 |ddv_scf|^2 =  6.298E-08

      iter #   4 total cpu time :   101.3 secs   av.it.:   6.7
      thresh= 2.510E-05 alpha_mix =  0.300 |ddv_scf|^2 =  7.508E-10

      iter #   5 total cpu time :   101.5 secs   av.it.:   6.1
      thresh= 2.740E-06 alpha_mix =  0.300 |ddv_scf|^2 =  2.752E-10

      iter #   6 total cpu time :   101.7 secs   av.it.:   6.6
      thresh= 1.659E-06 alpha_mix =  0.300 |ddv_scf|^2 =  2.936E-12

      iter #   7 total cpu time :   102.0 secs   av.it.:   7.2
      thresh= 1.713E-07 alpha_mix =  0.300 |ddv_scf|^2 =  2.907E-13

      iter #   8 total cpu time :   102.2 secs   av.it.:   6.6
      thresh= 5.392E-08 alpha_mix =  0.300 |ddv_scf|^2 =  2.271E-14

      iter #   9 total cpu time :   102.4 secs   av.it.:   6.1
      thresh= 1.507E-08 alpha_mix =  0.300 |ddv_scf|^2 =  9.684E-15

      iter #  10 total cpu time :   102.8 secs   av.it.:   6.8
      thresh= 9.841E-09 alpha_mix =  0.300 |ddv_scf|^2 =  1.560E-16

     End of self-consistent calculation

     Convergence has been achieved 
 
     Number of q in the star =   24
     List of q in the star:
          1   0.416666667  -0.416666667   0.583333333
          2  -0.583333333  -0.416666667  -0.416666667
          3   0.416666667   0.583333333  -0.416666667
          4  -0.416666667  -0.416666667   0.583333333
          5   0.416666667   0.416666667   0.583333333
          6   0.583333333   0.416666667   0.416666667
          7  -0.583333333   0.416666667  -0.416666667
          8   0.583333333  -0.416666667  -0.416666667
          9  -0.583333333  -0.416666667   0.416666667
         10  -0.416666667   0.583333333  -0.416666667
         11  -0.416666667  -0.583333333   0.416666667
         12   0.416666667   0.583333333   0.416666667
         13   0.416666667  -0.583333333  -0.416666667
         14  -0.416666667   0.583333333   0.416666667
         15  -0.416666667   0.416666667   0.583333333
         16  -0.416666667  -0.583333333  -0.416666667
         17   0.416666667  -0.583333333   0.416666667
         18   0.583333333   0.416666667  -0.416666667
         19   0.583333333  -0.416666667   0.416666667
         20  -0.416666667  -0.416666667  -0.583333333
         21  -0.583333333   0.416666667   0.416666667
         22  -0.416666667   0.416666667  -0.583333333
         23   0.416666667  -0.416666667  -0.583333333
         24   0.416666667   0.416666667  -0.583333333

     Diagonalizing the dynamical matrix

     q = (    0.416666667  -0.416666667   0.583333333 ) 

 **************************************************************************
     freq (    1) =       1.090153 [THz] =      36.363602 [cm-1]
     freq (    2) =       1.156231 [THz] =      38.567729 [cm-1]
     freq (    3) =       2.059098 [THz] =      68.684104 [cm-1]
 **************************************************************************

     Calculation of q =    0.2500000  -0.2500000   0.4166667
     [opt_tetra]  Optimized tetrahedron method is used.
 
     Parallelization info
     --------------------
     sticks:   dense  smooth     PW     G-vecs:    dense   smooth      PW
     Min          54      54     20                  747      747     170
     Max          55      55     21                  750      750     172
     Sum         433     433    163                 5985     5985    1363
 
     Using Slab Decomposition
 

     Title: 
     Phonon frequency and deformation potential                                 


     bravais-lattice index     =            2
     lattice parameter (alat)  =       9.5194  a.u.
     unit-cell volume          =     215.6591 (a.u.)^3
     number of atoms/cell      =            1
     number of atomic types    =            1
     number of electrons       =        14.00
     number of Kohn-Sham states=           11
     kinetic-energy cutoff     =      35.0000  Ry
     charge density cutoff     =     140.0000  Ry
     Exchange-correlation= PBE
                           (   1   4   3   4   0   0   0)

     celldm(1)=   9.519393  celldm(2)=   0.000000  celldm(3)=   0.000000
     celldm(4)=   0.000000  celldm(5)=   0.000000  celldm(6)=   0.000000

     crystal axes: (cart. coord. in units of alat)
               a(1) = (  -0.500000   0.000000   0.500000 )  
               a(2) = (   0.000000   0.500000   0.500000 )  
               a(3) = (  -0.500000   0.500000   0.000000 )  

     reciprocal axes: (cart. coord. in units 2 pi/alat)
               b(1) = ( -1.000000 -1.000000  1.000000 )  
               b(2) = (  1.000000  1.000000  1.000000 )  
               b(3) = ( -1.000000  1.000000 -1.000000 )  


     PseudoPot. # 1 for Pb read from file:
     ./Pb_ONCV_PBE-1.2.upf
     MD5 check sum: 7f27c247474026287e0dbe0f3167d60b
     Pseudo is Norm-conserving, Zval = 14.0
     Generated using ONCVPSP code by D. R. Hamann
     Using radial grid of  602 points,  8 beta functions with: 
                l(1) =   0
                l(2) =   0
                l(3) =   1
                l(4) =   1
                l(5) =   2
                l(6) =   2
                l(7) =   3
                l(8) =   3

     atomic species   valence    mass     pseudopotential
        Pb            14.00   207.20000     Pb( 1.00)

     48 Sym. Ops., with inversion, found



   Cartesian axes

     site n.     atom                  positions (alat units)
         1           Pb  tau(   1) = (   0.0000000   0.0000000   0.0000000  )

     number of k points=  1872 (tetrahedron method)

     Number of k-points >= 100: set verbosity='high' to print them.

     Dense  grid:     5985 G-vectors     FFT dimensions: (  25,  25,  25)

     Estimated max dynamical RAM per process >       2.90 MB

     Estimated total dynamical RAM >       2.90 GB

     The potential is recalculated from file :
     ./_ph0/pwscf.q_5/pwscf.save/charge-density

     Starting wfcs are    0 atomic +   11 random wfcs

     Band Structure Calculation
     Davidson diagonalization with overlap

     ethr =  7.14E-11,  avg # of iterations = 21.2

     total cpu time spent up to now is       16.2 secs

     End of band structure calculation

     Number of k-points >= 100: set verbosity='high' to print the bands.

     the Fermi energy is    11.5438 ev

     Writing output data file ./_ph0/pwscf.q_5/pwscf.save/
 
     [dfpt_tetra]  Dos(E_F)[/Ry] :   0.7203970E+01

     Phonon frequency and deformation potential                                 

     bravais-lattice index     =            2
     lattice parameter (alat)  =       9.5194  a.u.
     unit-cell volume          =     215.6591 (a.u.)^3
     number of atoms/cell      =            1
     number of atomic types    =            1
     kinetic-energy cut-off    =      35.0000  Ry
     charge density cut-off    =     140.0000  Ry
     convergence threshold     =      1.0E-15
     beta                      =       0.3000
     number of iterations used =            4
     Exchange-correlation= PBE
                           (   1   4   3   4   0   0   0)


     celldm(1)=    9.51939  celldm(2)=    0.00000  celldm(3)=    0.00000
     celldm(4)=    0.00000  celldm(5)=    0.00000  celldm(6)=    0.00000

     crystal axes: (cart. coord. in units of alat)
               a(1) = ( -0.5000  0.0000  0.5000 )  
               a(2) = (  0.0000  0.5000  0.5000 )  
               a(3) = ( -0.5000  0.5000  0.0000 )  

     reciprocal axes: (cart. coord. in units 2 pi/alat)
               b(1) = ( -1.0000 -1.0000  1.0000 )  
               b(2) = (  1.0000  1.0000  1.0000 )  
               b(3) = ( -1.0000  1.0000 -1.0000 )  


     Atoms inside the unit cell: 

     Cartesian axes

     site n.  atom      mass           positions (alat units)
        1     Pb 207.2000   tau(    1) = (    0.00000    0.00000    0.00000  )

     Computing dynamical matrix for 
                    q = (   0.2500000  -0.2500000   0.4166667 )
 
      2 Sym.Ops. (no q -> -q+G )


     G cutoff =  321.3563  (    749 G-vectors)     FFT grid: ( 25, 25, 25)
     number of k points=  1872

     PseudoPot. # 1 for Pb read from file:
     ./Pb_ONCV_PBE-1.2.upf
     MD5 check sum: 7f27c247474026287e0dbe0f3167d60b
     Pseudo is Norm-conserving, Zval = 14.0
     Generated using ONCVPSP code by D. R. Hamann
     Using radial grid of  602 points,  8 beta functions with: 
                l(1) =   0
                l(2) =   0
                l(3) =   1
                l(4) =   1
                l(5) =   2
                l(6) =   2
                l(7) =   3
                l(8) =   3


     Atomic displacements:
     There are    3 irreducible representations

     Representation     1      1 modes -  To be done

     Representation     2      1 modes -  To be done

     Representation     3      1 modes -  To be done



     Alpha used in Ewald sum =   1.4000
     PHONON       :   1m11.33s CPU   1m46.74s WALL



     Representation #   1 mode #   1

     Self-consistent Calculation

      iter #   1 total cpu time :   107.0 secs   av.it.:   5.1
      thresh= 1.000E-02 alpha_mix =  0.300 |ddv_scf|^2 =  1.065E-02

      iter #   2 total cpu time :   107.4 secs   av.it.:   5.3
      thresh= 1.000E-02 alpha_mix =  0.300 |ddv_scf|^2 =  2.207E-02

      iter #   3 total cpu time :   107.6 secs   av.it.:   4.9
      thresh= 1.000E-02 alpha_mix =  0.300 |ddv_scf|^2 =  5.187E-06

      iter #   4 total cpu time :   107.9 secs   av.it.:   6.5
      thresh= 2.277E-04 alpha_mix =  0.300 |ddv_scf|^2 =  6.334E-08

      iter #   5 total cpu time :   108.2 secs   av.it.:   6.6
      thresh= 2.517E-05 alpha_mix =  0.300 |ddv_scf|^2 =  1.833E-08

      iter #   6 total cpu time :   109.1 secs   av.it.:   7.1
      thresh= 1.354E-05 alpha_mix =  0.300 |ddv_scf|^2 =  4.538E-10

      iter #   7 total cpu time :   109.9 secs   av.it.:   7.1
      thresh= 2.130E-06 alpha_mix =  0.300 |ddv_scf|^2 =  1.508E-10

      iter #   8 total cpu time :   110.1 secs   av.it.:   6.2
      thresh= 1.228E-06 alpha_mix =  0.300 |ddv_scf|^2 =  1.823E-11

      iter #   9 total cpu time :   110.3 secs   av.it.:   6.2
      thresh= 4.269E-07 alpha_mix =  0.300 |ddv_scf|^2 =  1.314E-11

      iter #  10 total cpu time :   110.6 secs   av.it.:   5.2
      thresh= 3.625E-07 alpha_mix =  0.300 |ddv_scf|^2 =  3.004E-12

      iter #  11 total cpu time :   110.8 secs   av.it.:   6.8
      thresh= 1.733E-07 alpha_mix =  0.300 |ddv_scf|^2 =  3.719E-13

      iter #  12 total cpu time :   111.1 secs   av.it.:   6.2
      thresh= 6.098E-08 alpha_mix =  0.300 |ddv_scf|^2 =  4.202E-14

      iter #  13 total cpu time :   111.3 secs   av.it.:   6.4
      thresh= 2.050E-08 alpha_mix =  0.300 |ddv_scf|^2 =  1.850E-14

      iter #  14 total cpu time :   111.6 secs   av.it.:   6.7
      thresh= 1.360E-08 alpha_mix =  0.300 |ddv_scf|^2 =  1.322E-15

      iter #  15 total cpu time :   111.9 secs   av.it.:   6.6
      thresh= 3.636E-09 alpha_mix =  0.300 |ddv_scf|^2 =  6.283E-16

     End of self-consistent calculation

     Convergence has been achieved 


     Representation #   2 mode #   2

     Self-consistent Calculation

      iter #   1 total cpu time :   112.6 secs   av.it.:   4.9
      thresh= 1.000E-02 alpha_mix =  0.300 |ddv_scf|^2 =  7.788E-04

      iter #   2 total cpu time :   112.8 secs   av.it.:   5.5
      thresh= 2.791E-03 alpha_mix =  0.300 |ddv_scf|^2 =  1.486E-03

      iter #   3 total cpu time :   113.1 secs   av.it.:   4.4
      thresh= 3.855E-03 alpha_mix =  0.300 |ddv_scf|^2 =  2.097E-06

      iter #   4 total cpu time :   113.3 secs   av.it.:   6.8
      thresh= 1.448E-04 alpha_mix =  0.300 |ddv_scf|^2 =  4.749E-08

      iter #   5 total cpu time :   113.6 secs   av.it.:   6.6
      thresh= 2.179E-05 alpha_mix =  0.300 |ddv_scf|^2 =  1.379E-08

      iter #   6 total cpu time :   113.8 secs   av.it.:   7.1
      thresh= 1.174E-05 alpha_mix =  0.300 |ddv_scf|^2 =  2.490E-10

      iter #   7 total cpu time :   114.0 secs   av.it.:   6.7
      thresh= 1.578E-06 alpha_mix =  0.300 |ddv_scf|^2 =  1.011E-10

      iter #   8 total cpu time :   114.3 secs   av.it.:   6.3
      thresh= 1.005E-06 alpha_mix =  0.300 |ddv_scf|^2 =  9.288E-11

      iter #   9 total cpu time :   114.5 secs   av.it.:   6.2
      thresh= 9.637E-07 alpha_mix =  0.300 |ddv_scf|^2 =  8.069E-12

      iter #  10 total cpu time :   114.7 secs   av.it.:   6.9
      thresh= 2.841E-07 alpha_mix =  0.300 |ddv_scf|^2 =  1.361E-12

      iter #  11 total cpu time :   115.0 secs   av.it.:   6.5
      thresh= 1.167E-07 alpha_mix =  0.300 |ddv_scf|^2 =  1.379E-13

      iter #  12 total cpu time :   115.3 secs   av.it.:   7.0
      thresh= 3.713E-08 alpha_mix =  0.300 |ddv_scf|^2 =  3.756E-14

      iter #  13 total cpu time :   115.5 secs   av.it.:   6.9
      thresh= 1.938E-08 alpha_mix =  0.300 |ddv_scf|^2 =  1.509E-14

      iter #  14 total cpu time :   115.7 secs   av.it.:   6.9
      thresh= 1.228E-08 alpha_mix =  0.300 |ddv_scf|^2 =  3.884E-15

      iter #  15 total cpu time :   116.0 secs   av.it.:   5.7
      thresh= 6.232E-09 alpha_mix =  0.300 |ddv_scf|^2 =  1.017E-15

      iter #  16 total cpu time :   116.3 secs   av.it.:   5.4
      thresh= 3.189E-09 alpha_mix =  0.300 |ddv_scf|^2 =  1.316E-16

     End of self-consistent calculation

     Convergence has been achieved 


     Representation #   3 mode #   3

     Self-consistent Calculation

      iter #   1 total cpu time :   117.2 secs   av.it.:   4.8
      thresh= 1.000E-02 alpha_mix =  0.300 |ddv_scf|^2 =  7.535E-05

      iter #   2 total cpu time :   117.5 secs   av.it.:   5.8
      thresh= 8.680E-04 alpha_mix =  0.300 |ddv_scf|^2 =  4.280E-06

      iter #   3 total cpu time :   117.7 secs   av.it.:   6.2
      thresh= 2.069E-04 alpha_mix =  0.300 |ddv_scf|^2 =  6.160E-08

      iter #   4 total cpu time :   118.0 secs   av.it.:   6.7
      thresh= 2.482E-05 alpha_mix =  0.300 |ddv_scf|^2 =  7.993E-10

      iter #   5 total cpu time :   118.2 secs   av.it.:   6.3
      thresh= 2.827E-06 alpha_mix =  0.300 |ddv_scf|^2 =  2.823E-10

      iter #   6 total cpu time :   118.5 secs   av.it.:   6.7
      thresh= 1.680E-06 alpha_mix =  0.300 |ddv_scf|^2 =  4.813E-12

      iter #   7 total cpu time :   118.7 secs   av.it.:   7.1
      thresh= 2.194E-07 alpha_mix =  0.300 |ddv_scf|^2 =  4.594E-13

      iter #   8 total cpu time :   119.0 secs   av.it.:   6.7
      thresh= 6.778E-08 alpha_mix =  0.300 |ddv_scf|^2 =  2.520E-14

      iter #   9 total cpu time :   119.2 secs   av.it.:   6.4
      thresh= 1.587E-08 alpha_mix =  0.300 |ddv_scf|^2 =  1.132E-14

      iter #  10 total cpu time :   119.6 secs   av.it.:   7.0
      thresh= 1.064E-08 alpha_mix =  0.300 |ddv_scf|^2 =  1.223E-16

     End of self-consistent calculation

     Convergence has been achieved 
 
     Number of q in the star =   24
     List of q in the star:
          1   0.250000000  -0.250000000   0.416666667
          2  -0.416666667  -0.250000000  -0.250000000
          3   0.250000000   0.416666667  -0.250000000
          4  -0.250000000  -0.250000000   0.416666667
          5   0.250000000   0.250000000   0.416666667
          6   0.416666667   0.250000000   0.250000000
          7  -0.416666667   0.250000000  -0.250000000
          8   0.416666667  -0.250000000  -0.250000000
          9  -0.416666667  -0.250000000   0.250000000
         10  -0.250000000   0.416666667  -0.250000000
         11  -0.250000000  -0.416666667   0.250000000
         12   0.250000000   0.416666667   0.250000000
         13   0.250000000  -0.416666667  -0.250000000
         14  -0.250000000   0.416666667   0.250000000
         15  -0.250000000   0.250000000   0.416666667
         16  -0.250000000  -0.416666667  -0.250000000
         17   0.250000000  -0.416666667   0.250000000
         18   0.416666667   0.250000000  -0.250000000
         19   0.416666667  -0.250000000   0.250000000
         20  -0.250000000  -0.250000000  -0.416666667
         21  -0.416666667   0.250000000   0.250000000
         22  -0.250000000   0.250000000  -0.416666667
         23   0.250000000  -0.250000000  -0.416666667
         24   0.250000000   0.250000000  -0.416666667

     Diagonalizing the dynamical matrix

     q = (    0.250000000  -0.250000000   0.416666667 ) 

 **************************************************************************
     freq (    1) =       0.996012 [THz] =      33.223376 [cm-1]
     freq (    2) =       1.019606 [THz] =      34.010406 [cm-1]
     freq (    3) =       1.822594 [THz] =      60.795189 [cm-1]
 **************************************************************************

     Calculation of q =    0.0833333  -0.0833333   0.2500000
     [opt_tetra]  Optimized tetrahedron method is used.
 
     Parallelization info
     --------------------
     sticks:   dense  smooth     PW     G-vecs:    dense   smooth      PW
     Min          54      54     18                  747      747     153
     Max          55      55     19                  750      750     156
     Sum         433     433    151                 5985     5985    1243
 
     Using Slab Decomposition
 

     Title: 
     Phonon frequency and deformation potential                                 


     bravais-lattice index     =            2
     lattice parameter (alat)  =       9.5194  a.u.
     unit-cell volume          =     215.6591 (a.u.)^3
     number of atoms/cell      =            1
     number of atomic types    =            1
     number of electrons       =        14.00
     number of Kohn-Sham states=           11
     kinetic-energy cutoff     =      35.0000  Ry
     charge density cutoff     =     140.0000  Ry
     Exchange-correlation= PBE
                           (   1   4   3   4   0   0   0)

     celldm(1)=   9.519393  celldm(2)=   0.000000  celldm(3)=   0.000000
     celldm(4)=   0.000000  celldm(5)=   0.000000  celldm(6)=   0.000000

     crystal axes: (cart. coord. in units of alat)
               a(1) = (  -0.500000   0.000000   0.500000 )  
               a(2) = (   0.000000   0.500000   0.500000 )  
               a(3) = (  -0.500000   0.500000   0.000000 )  

     reciprocal axes: (cart. coord. in units 2 pi/alat)
               b(1) = ( -1.000000 -1.000000  1.000000 )  
               b(2) = (  1.000000  1.000000  1.000000 )  
               b(3) = ( -1.000000  1.000000 -1.000000 )  


     PseudoPot. # 1 for Pb read from file:
     ./Pb_ONCV_PBE-1.2.upf
     MD5 check sum: 7f27c247474026287e0dbe0f3167d60b
     Pseudo is Norm-conserving, Zval = 14.0
     Generated using ONCVPSP code by D. R. Hamann
     Using radial grid of  602 points,  8 beta functions with: 
                l(1) =   0
                l(2) =   0
                l(3) =   1
                l(4) =   1
                l(5) =   2
                l(6) =   2
                l(7) =   3
                l(8) =   3

     atomic species   valence    mass     pseudopotential
        Pb            14.00   207.20000     Pb( 1.00)

     48 Sym. Ops., with inversion, found



   Cartesian axes

     site n.     atom                  positions (alat units)
         1           Pb  tau(   1) = (   0.0000000   0.0000000   0.0000000  )

     number of k points=  1872 (tetrahedron method)

     Number of k-points >= 100: set verbosity='high' to print them.

     Dense  grid:     5985 G-vectors     FFT dimensions: (  25,  25,  25)

     Estimated max dynamical RAM per process >       2.87 MB

     Estimated total dynamical RAM >       2.87 GB

     The potential is recalculated from file :
     ./_ph0/pwscf.q_6/pwscf.save/charge-density

     Starting wfcs are    0 atomic +   11 random wfcs

     Band Structure Calculation
     Davidson diagonalization with overlap

     ethr =  7.14E-11,  avg # of iterations = 21.2

     total cpu time spent up to now is       18.2 secs

     End of band structure calculation

     Number of k-points >= 100: set verbosity='high' to print the bands.

     the Fermi energy is    11.5438 ev

     Writing output data file ./_ph0/pwscf.q_6/pwscf.save/
 
     [dfpt_tetra]  Dos(E_F)[/Ry] :   0.7203970E+01

     Phonon frequency and deformation potential                                 

     bravais-lattice index     =            2
     lattice parameter (alat)  =       9.5194  a.u.
     unit-cell volume          =     215.6591 (a.u.)^3
     number of atoms/cell      =            1
     number of atomic types    =            1
     kinetic-energy cut-off    =      35.0000  Ry
     charge density cut-off    =     140.0000  Ry
     convergence threshold     =      1.0E-15
     beta                      =       0.3000
     number of iterations used =            4
     Exchange-correlation= PBE
                           (   1   4   3   4   0   0   0)


     celldm(1)=    9.51939  celldm(2)=    0.00000  celldm(3)=    0.00000
     celldm(4)=    0.00000  celldm(5)=    0.00000  celldm(6)=    0.00000

     crystal axes: (cart. coord. in units of alat)
               a(1) = ( -0.5000  0.0000  0.5000 )  
               a(2) = (  0.0000  0.5000  0.5000 )  
               a(3) = ( -0.5000  0.5000  0.0000 )  

     reciprocal axes: (cart. coord. in units 2 pi/alat)
               b(1) = ( -1.0000 -1.0000  1.0000 )  
               b(2) = (  1.0000  1.0000  1.0000 )  
               b(3) = ( -1.0000  1.0000 -1.0000 )  


     Atoms inside the unit cell: 

     Cartesian axes

     site n.  atom      mass           positions (alat units)
        1     Pb 207.2000   tau(    1) = (    0.00000    0.00000    0.00000  )

     Computing dynamical matrix for 
                    q = (   0.0833333  -0.0833333   0.2500000 )
 
      2 Sym.Ops. (no q -> -q+G )


     G cutoff =  321.3563  (    748 G-vectors)     FFT grid: ( 25, 25, 25)
     number of k points=  1872

     PseudoPot. # 1 for Pb read from file:
     ./Pb_ONCV_PBE-1.2.upf
     MD5 check sum: 7f27c247474026287e0dbe0f3167d60b
     Pseudo is Norm-conserving, Zval = 14.0
     Generated using ONCVPSP code by D. R. Hamann
     Using radial grid of  602 points,  8 beta functions with: 
                l(1) =   0
                l(2) =   0
                l(3) =   1
                l(4) =   1
                l(5) =   2
                l(6) =   2
                l(7) =   3
                l(8) =   3


     Atomic displacements:
     There are    3 irreducible representations

     Representation     1      1 modes -  To be done

     Representation     2      1 modes -  To be done

     Representation     3      1 modes -  To be done



     Alpha used in Ewald sum =   1.4000
     PHONON       :   1m24.57s CPU   2m 4.23s WALL



     Representation #   1 mode #   1

     Self-consistent Calculation

      iter #   1 total cpu time :   124.8 secs   av.it.:   5.4
      thresh= 1.000E-02 alpha_mix =  0.300 |ddv_scf|^2 =  4.133E-01

      iter #   2 total cpu time :   125.3 secs   av.it.:   6.8
      thresh= 1.000E-02 alpha_mix =  0.300 |ddv_scf|^2 =  2.060E+01

      iter #   3 total cpu time :   125.5 secs   av.it.:   6.6
      thresh= 1.000E-02 alpha_mix =  0.300 |ddv_scf|^2 =  2.305E-05

      iter #   4 total cpu time :   125.7 secs   av.it.:   6.0
      thresh= 4.801E-04 alpha_mix =  0.300 |ddv_scf|^2 =  1.846E-06

      iter #   5 total cpu time :   125.9 secs   av.it.:   5.4
      thresh= 1.359E-04 alpha_mix =  0.300 |ddv_scf|^2 =  2.597E-08

      iter #   6 total cpu time :   126.9 secs   av.it.:   7.3
      thresh= 1.611E-05 alpha_mix =  0.300 |ddv_scf|^2 =  4.008E-08

      iter #   7 total cpu time :   127.1 secs   av.it.:   3.7
      thresh= 2.002E-05 alpha_mix =  0.300 |ddv_scf|^2 =  2.968E-08

      iter #   8 total cpu time :   127.3 secs   av.it.:   5.1
      thresh= 1.723E-05 alpha_mix =  0.300 |ddv_scf|^2 =  2.928E-08

      iter #   9 total cpu time :   127.5 secs   av.it.:   3.6
      thresh= 1.711E-05 alpha_mix =  0.300 |ddv_scf|^2 =  6.586E-11

      iter #  10 total cpu time :   127.7 secs   av.it.:   7.3
      thresh= 8.115E-07 alpha_mix =  0.300 |ddv_scf|^2 =  2.637E-11

      iter #  11 total cpu time :   128.0 secs   av.it.:   6.2
      thresh= 5.136E-07 alpha_mix =  0.300 |ddv_scf|^2 =  1.191E-12

      iter #  12 total cpu time :   128.2 secs   av.it.:   7.0
      thresh= 1.091E-07 alpha_mix =  0.300 |ddv_scf|^2 =  1.826E-13

      iter #  13 total cpu time :   128.4 secs   av.it.:   6.0
      thresh= 4.274E-08 alpha_mix =  0.300 |ddv_scf|^2 =  5.205E-13

      iter #  14 total cpu time :   128.6 secs   av.it.:   4.6
      thresh= 7.214E-08 alpha_mix =  0.300 |ddv_scf|^2 =  5.555E-14

      iter #  15 total cpu time :   128.9 secs   av.it.:   6.5
      thresh= 2.357E-08 alpha_mix =  0.300 |ddv_scf|^2 =  6.939E-14

      iter #  16 total cpu time :   129.1 secs   av.it.:   5.2
      thresh= 2.634E-08 alpha_mix =  0.300 |ddv_scf|^2 =  1.644E-15

      iter #  17 total cpu time :   129.4 secs   av.it.:   7.2
      thresh= 4.055E-09 alpha_mix =  0.300 |ddv_scf|^2 =  1.852E-15

      iter #  18 total cpu time :   129.7 secs   av.it.:   5.8
      thresh= 4.304E-09 alpha_mix =  0.300 |ddv_scf|^2 =  5.097E-16

     End of self-consistent calculation

     Convergence has been achieved 


     Representation #   2 mode #   2

     Self-consistent Calculation

      iter #   1 total cpu time :   130.4 secs   av.it.:   5.1
      thresh= 1.000E-02 alpha_mix =  0.300 |ddv_scf|^2 =  1.340E-01

      iter #   2 total cpu time :   130.7 secs   av.it.:   6.1
      thresh= 1.000E-02 alpha_mix =  0.300 |ddv_scf|^2 =  6.678E+00

      iter #   3 total cpu time :   130.9 secs   av.it.:   5.9
      thresh= 1.000E-02 alpha_mix =  0.300 |ddv_scf|^2 =  1.092E-05

      iter #   4 total cpu time :   131.2 secs   av.it.:   6.6
      thresh= 3.305E-04 alpha_mix =  0.300 |ddv_scf|^2 =  5.171E-07

      iter #   5 total cpu time :   131.4 secs   av.it.:   6.1
      thresh= 7.191E-05 alpha_mix =  0.300 |ddv_scf|^2 =  4.199E-08

      iter #   6 total cpu time :   131.6 secs   av.it.:   6.9
      thresh= 2.049E-05 alpha_mix =  0.300 |ddv_scf|^2 =  8.224E-08

      iter #   7 total cpu time :   131.8 secs   av.it.:   3.4
      thresh= 2.868E-05 alpha_mix =  0.300 |ddv_scf|^2 =  5.449E-08

      iter #   8 total cpu time :   132.2 secs   av.it.:   3.9
      thresh= 2.334E-05 alpha_mix =  0.300 |ddv_scf|^2 =  4.157E-09

      iter #   9 total cpu time :   132.4 secs   av.it.:   5.4
      thresh= 6.447E-06 alpha_mix =  0.300 |ddv_scf|^2 =  4.718E-11

      iter #  10 total cpu time :   132.7 secs   av.it.:   7.2
      thresh= 6.869E-07 alpha_mix =  0.300 |ddv_scf|^2 =  2.520E-11

      iter #  11 total cpu time :   132.9 secs   av.it.:   5.4
      thresh= 5.020E-07 alpha_mix =  0.300 |ddv_scf|^2 =  3.592E-13

      iter #  12 total cpu time :   133.1 secs   av.it.:   7.0
      thresh= 5.994E-08 alpha_mix =  0.300 |ddv_scf|^2 =  9.352E-14

      iter #  13 total cpu time :   133.4 secs   av.it.:   6.3
      thresh= 3.058E-08 alpha_mix =  0.300 |ddv_scf|^2 =  1.381E-13

      iter #  14 total cpu time :   133.6 secs   av.it.:   4.3
      thresh= 3.716E-08 alpha_mix =  0.300 |ddv_scf|^2 =  1.159E-13

      iter #  15 total cpu time :   133.8 secs   av.it.:   6.0
      thresh= 3.405E-08 alpha_mix =  0.300 |ddv_scf|^2 =  4.115E-15

      iter #  16 total cpu time :   134.2 secs   av.it.:   6.7
      thresh= 6.415E-09 alpha_mix =  0.300 |ddv_scf|^2 =  8.433E-16

     End of self-consistent calculation

     Convergence has been achieved 


     Representation #   3 mode #   3

     Self-consistent Calculation

      iter #   1 total cpu time :   134.8 secs   av.it.:   4.8
      thresh= 1.000E-02 alpha_mix =  0.300 |ddv_scf|^2 =  6.799E-05

      iter #   2 total cpu time :   135.1 secs   av.it.:   5.8
      thresh= 8.246E-04 alpha_mix =  0.300 |ddv_scf|^2 =  4.143E-06

      iter #   3 total cpu time :   135.3 secs   av.it.:   6.2
      thresh= 2.036E-04 alpha_mix =  0.300 |ddv_scf|^2 =  5.963E-08

      iter #   4 total cpu time :   135.6 secs   av.it.:   6.7
[...]
      thresh= 4.257E-04 alpha_mix =  0.300 |ddv_scf|^2 =  1.057E-06

      iter #   3 total cpu time :   585.1 secs   av.it.:   7.0
      thresh= 1.028E-04 alpha_mix =  0.300 |ddv_scf|^2 =  1.581E-08

      iter #   4 total cpu time :   585.4 secs   av.it.:   7.4
      thresh= 1.257E-05 alpha_mix =  0.300 |ddv_scf|^2 =  1.774E-10

      iter #   5 total cpu time :   585.6 secs   av.it.:   6.7
      thresh= 1.332E-06 alpha_mix =  0.300 |ddv_scf|^2 =  6.308E-11

      iter #   6 total cpu time :   585.9 secs   av.it.:   7.2
      thresh= 7.942E-07 alpha_mix =  0.300 |ddv_scf|^2 =  4.380E-13

      iter #   7 total cpu time :   586.1 secs   av.it.:   7.6
      thresh= 6.618E-08 alpha_mix =  0.300 |ddv_scf|^2 =  2.824E-14

      iter #   8 total cpu time :   586.3 secs   av.it.:   7.4
      thresh= 1.680E-08 alpha_mix =  0.300 |ddv_scf|^2 =  2.686E-15

      iter #   9 total cpu time :   586.6 secs   av.it.:   6.7
      thresh= 5.182E-09 alpha_mix =  0.300 |ddv_scf|^2 =  1.047E-15

      iter #  10 total cpu time :   586.9 secs   av.it.:   7.4
      thresh= 3.235E-09 alpha_mix =  0.300 |ddv_scf|^2 =  1.014E-16

     End of self-consistent calculation

     Convergence has been achieved 
 
     Number of q in the star =    8
     List of q in the star:
          1  -0.416666667   0.416666667   0.416666667
          2   0.416666667   0.416666667   0.416666667
          3  -0.416666667  -0.416666667   0.416666667
          4   0.416666667  -0.416666667  -0.416666667
          5  -0.416666667   0.416666667  -0.416666667
          6   0.416666667   0.416666667  -0.416666667
          7   0.416666667  -0.416666667   0.416666667
          8  -0.416666667  -0.416666667  -0.416666667

     Diagonalizing the dynamical matrix

     q = (   -0.416666667   0.416666667   0.416666667 ) 

 **************************************************************************
     freq (    1) =       1.049127 [THz] =      34.995107 [cm-1]
     freq (    2) =       1.049127 [THz] =      34.995107 [cm-1]
     freq (    3) =       1.997584 [THz] =      66.632214 [cm-1]
 **************************************************************************

     Calculation of q =    0.4166667  -0.4166667   1.2500000
     [opt_tetra]  Optimized tetrahedron method is used.
 
     Parallelization info
     --------------------
     sticks:   dense  smooth     PW     G-vecs:    dense   smooth      PW
     Min          54      54     23                  747      747     204
     Max          55      55     24                  750      750     206
     Sum         433     433    187                 5985     5985    1639
 
     Using Slab Decomposition
 

     Title: 
     Phonon frequency and deformation potential                                 


     bravais-lattice index     =            2
     lattice parameter (alat)  =       9.5194  a.u.
     unit-cell volume          =     215.6591 (a.u.)^3
     number of atoms/cell      =            1
     number of atomic types    =            1
     number of electrons       =        14.00
     number of Kohn-Sham states=           11
     kinetic-energy cutoff     =      35.0000  Ry
     charge density cutoff     =     140.0000  Ry
     Exchange-correlation= PBE
                           (   1   4   3   4   0   0   0)

     celldm(1)=   9.519393  celldm(2)=   0.000000  celldm(3)=   0.000000
     celldm(4)=   0.000000  celldm(5)=   0.000000  celldm(6)=   0.000000

     crystal axes: (cart. coord. in units of alat)
               a(1) = (  -0.500000   0.000000   0.500000 )  
               a(2) = (   0.000000   0.500000   0.500000 )  
               a(3) = (  -0.500000   0.500000   0.000000 )  

     reciprocal axes: (cart. coord. in units 2 pi/alat)
               b(1) = ( -1.000000 -1.000000  1.000000 )  
               b(2) = (  1.000000  1.000000  1.000000 )  
               b(3) = ( -1.000000  1.000000 -1.000000 )  


     PseudoPot. # 1 for Pb read from file:
     ./Pb_ONCV_PBE-1.2.upf
     MD5 check sum: 7f27c247474026287e0dbe0f3167d60b
     Pseudo is Norm-conserving, Zval = 14.0
     Generated using ONCVPSP code by D. R. Hamann
     Using radial grid of  602 points,  8 beta functions with: 
                l(1) =   0
                l(2) =   0
                l(3) =   1
                l(4) =   1
                l(5) =   2
                l(6) =   2
                l(7) =   3
                l(8) =   3

     atomic species   valence    mass     pseudopotential
        Pb            14.00   207.20000     Pb( 1.00)

     48 Sym. Ops., with inversion, found



   Cartesian axes

     site n.     atom                  positions (alat units)
         1           Pb  tau(   1) = (   0.0000000   0.0000000   0.0000000  )

     number of k points=  1872 (tetrahedron method)

     Number of k-points >= 100: set verbosity='high' to print them.

     Dense  grid:     5985 G-vectors     FFT dimensions: (  25,  25,  25)

     Estimated max dynamical RAM per process >       3.01 MB

     Estimated total dynamical RAM >       3.01 GB

     The potential is recalculated from file :
     ./_ph0/pwscf.q_28/pwscf.save/charge-density

     Starting wfcs are    0 atomic +   11 random wfcs

     Band Structure Calculation
     Davidson diagonalization with overlap

     ethr =  7.14E-11,  avg # of iterations = 21.2

     total cpu time spent up to now is       78.6 secs

     End of band structure calculation

     Number of k-points >= 100: set verbosity='high' to print the bands.

     the Fermi energy is    11.5438 ev

     Writing output data file ./_ph0/pwscf.q_28/pwscf.save/
 
     [dfpt_tetra]  Dos(E_F)[/Ry] :   0.7203970E+01

     Phonon frequency and deformation potential                                 

     bravais-lattice index     =            2
     lattice parameter (alat)  =       9.5194  a.u.
     unit-cell volume          =     215.6591 (a.u.)^3
     number of atoms/cell      =            1
     number of atomic types    =            1
     kinetic-energy cut-off    =      35.0000  Ry
     charge density cut-off    =     140.0000  Ry
     convergence threshold     =      1.0E-15
     beta                      =       0.3000
     number of iterations used =            4
     Exchange-correlation= PBE
                           (   1   4   3   4   0   0   0)


     celldm(1)=    9.51939  celldm(2)=    0.00000  celldm(3)=    0.00000
     celldm(4)=    0.00000  celldm(5)=    0.00000  celldm(6)=    0.00000

     crystal axes: (cart. coord. in units of alat)
               a(1) = ( -0.5000  0.0000  0.5000 )  
               a(2) = (  0.0000  0.5000  0.5000 )  
               a(3) = ( -0.5000  0.5000  0.0000 )  

     reciprocal axes: (cart. coord. in units 2 pi/alat)
               b(1) = ( -1.0000 -1.0000  1.0000 )  
               b(2) = (  1.0000  1.0000  1.0000 )  
               b(3) = ( -1.0000  1.0000 -1.0000 )  


     Atoms inside the unit cell: 

     Cartesian axes

     site n.  atom      mass           positions (alat units)
        1     Pb 207.2000   tau(    1) = (    0.00000    0.00000    0.00000  )

     Computing dynamical matrix for 
                    q = (   0.4166667  -0.4166667   1.2500000 )
 
      2 Sym.Ops. (no q -> -q+G )


     G cutoff =  321.3563  (    749 G-vectors)     FFT grid: ( 25, 25, 25)
     number of k points=  1872

     PseudoPot. # 1 for Pb read from file:
     ./Pb_ONCV_PBE-1.2.upf
     MD5 check sum: 7f27c247474026287e0dbe0f3167d60b
     Pseudo is Norm-conserving, Zval = 14.0
     Generated using ONCVPSP code by D. R. Hamann
     Using radial grid of  602 points,  8 beta functions with: 
                l(1) =   0
                l(2) =   0
                l(3) =   1
                l(4) =   1
                l(5) =   2
                l(6) =   2
                l(7) =   3
                l(8) =   3


     Atomic displacements:
     There are    3 irreducible representations

     Representation     1      1 modes -  To be done

     Representation     2      1 modes -  To be done

     Representation     3      1 modes -  To be done



     Alpha used in Ewald sum =   1.4000
     PHONON       :   7m32.70s CPU   9m50.90s WALL



     Representation #   1 mode #   1

     Self-consistent Calculation

      iter #   1 total cpu time :   591.1 secs   av.it.:   4.9
      thresh= 1.000E-02 alpha_mix =  0.300 |ddv_scf|^2 =  3.910E-04

      iter #   2 total cpu time :   591.4 secs   av.it.:   5.8
      thresh= 1.977E-03 alpha_mix =  0.300 |ddv_scf|^2 =  1.856E-05

      iter #   3 total cpu time :   591.7 secs   av.it.:   6.1
      thresh= 4.308E-04 alpha_mix =  0.300 |ddv_scf|^2 =  5.364E-07

      iter #   4 total cpu time :   591.9 secs   av.it.:   6.6
      thresh= 7.324E-05 alpha_mix =  0.300 |ddv_scf|^2 =  3.228E-08

      iter #   5 total cpu time :   592.1 secs   av.it.:   6.5
      thresh= 1.797E-05 alpha_mix =  0.300 |ddv_scf|^2 =  1.199E-08

      iter #   6 total cpu time :   592.4 secs   av.it.:   7.1
      thresh= 1.095E-05 alpha_mix =  0.300 |ddv_scf|^2 =  1.899E-10

      iter #   7 total cpu time :   592.6 secs   av.it.:   6.7
      thresh= 1.378E-06 alpha_mix =  0.300 |ddv_scf|^2 =  6.894E-11

      iter #   8 total cpu time :   592.9 secs   av.it.:   7.1
      thresh= 8.303E-07 alpha_mix =  0.300 |ddv_scf|^2 =  1.575E-12

      iter #   9 total cpu time :   593.2 secs   av.it.:   6.9
      thresh= 1.255E-07 alpha_mix =  0.300 |ddv_scf|^2 =  5.269E-13

      iter #  10 total cpu time :   593.5 secs   av.it.:   7.1
      thresh= 7.259E-08 alpha_mix =  0.300 |ddv_scf|^2 =  3.798E-14

      iter #  11 total cpu time :   593.7 secs   av.it.:   6.7
      thresh= 1.949E-08 alpha_mix =  0.300 |ddv_scf|^2 =  1.124E-14

      iter #  12 total cpu time :   593.9 secs   av.it.:   6.8
      thresh= 1.060E-08 alpha_mix =  0.300 |ddv_scf|^2 =  1.684E-15

      iter #  13 total cpu time :   594.3 secs   av.it.:   6.9
      thresh= 4.103E-09 alpha_mix =  0.300 |ddv_scf|^2 =  2.703E-16

     End of self-consistent calculation

     Convergence has been achieved 


     Representation #   2 mode #   2

     Self-consistent Calculation

      iter #   1 total cpu time :   594.9 secs   av.it.:   5.0
      thresh= 1.000E-02 alpha_mix =  0.300 |ddv_scf|^2 =  9.751E-04

      iter #   2 total cpu time :   595.1 secs   av.it.:   5.6
      thresh= 3.123E-03 alpha_mix =  0.300 |ddv_scf|^2 =  2.873E-05

      iter #   3 total cpu time :   595.4 secs   av.it.:   5.5
      thresh= 5.360E-04 alpha_mix =  0.300 |ddv_scf|^2 =  1.582E-07

      iter #   4 total cpu time :   595.6 secs   av.it.:   6.4
      thresh= 3.978E-05 alpha_mix =  0.300 |ddv_scf|^2 =  3.640E-08

      iter #   5 total cpu time :   595.9 secs   av.it.:   6.4
      thresh= 1.908E-05 alpha_mix =  0.300 |ddv_scf|^2 =  7.694E-09

      iter #   6 total cpu time :   596.1 secs   av.it.:   6.7
      thresh= 8.772E-06 alpha_mix =  0.300 |ddv_scf|^2 =  2.278E-10

      iter #   7 total cpu time :   596.3 secs   av.it.:   6.3
      thresh= 1.509E-06 alpha_mix =  0.300 |ddv_scf|^2 =  6.033E-11

      iter #   8 total cpu time :   596.6 secs   av.it.:   6.7
      thresh= 7.767E-07 alpha_mix =  0.300 |ddv_scf|^2 =  5.554E-12

      iter #   9 total cpu time :   596.8 secs   av.it.:   6.9
      thresh= 2.357E-07 alpha_mix =  0.300 |ddv_scf|^2 =  8.377E-13

      iter #  10 total cpu time :   597.0 secs   av.it.:   6.9
      thresh= 9.153E-08 alpha_mix =  0.300 |ddv_scf|^2 =  3.213E-14

      iter #  11 total cpu time :   597.3 secs   av.it.:   6.8
      thresh= 1.793E-08 alpha_mix =  0.300 |ddv_scf|^2 =  7.668E-15

      iter #  12 total cpu time :   597.5 secs   av.it.:   6.6
      thresh= 8.756E-09 alpha_mix =  0.300 |ddv_scf|^2 =  2.021E-15

      iter #  13 total cpu time :   598.0 secs   av.it.:   6.8
      thresh= 4.495E-09 alpha_mix =  0.300 |ddv_scf|^2 =  2.889E-16

     End of self-consistent calculation

     Convergence has been achieved 


     Representation #   3 mode #   3

     Self-consistent Calculation

      iter #   1 total cpu time :   598.5 secs   av.it.:   4.8
      thresh= 1.000E-02 alpha_mix =  0.300 |ddv_scf|^2 =  8.005E-05

      iter #   2 total cpu time :   598.8 secs   av.it.:   5.8
      thresh= 8.947E-04 alpha_mix =  0.300 |ddv_scf|^2 =  4.339E-06

      iter #   3 total cpu time :   599.1 secs   av.it.:   6.2
      thresh= 2.083E-04 alpha_mix =  0.300 |ddv_scf|^2 =  6.285E-08

      iter #   4 total cpu time :   601.0 secs   av.it.:   6.7
      thresh= 2.507E-05 alpha_mix =  0.300 |ddv_scf|^2 =  8.358E-10

      iter #   5 total cpu time :   603.0 secs   av.it.:   6.3
      thresh= 2.891E-06 alpha_mix =  0.300 |ddv_scf|^2 =  3.008E-10

      iter #   6 total cpu time :   603.3 secs   av.it.:   6.7
      thresh= 1.734E-06 alpha_mix =  0.300 |ddv_scf|^2 =  4.774E-12

      iter #   7 total cpu time :   603.6 secs   av.it.:   7.1
      thresh= 2.185E-07 alpha_mix =  0.300 |ddv_scf|^2 =  1.507E-13

      iter #   8 total cpu time :   603.8 secs   av.it.:   6.8
      thresh= 3.882E-08 alpha_mix =  0.300 |ddv_scf|^2 =  2.697E-14

      iter #   9 total cpu time :   604.0 secs   av.it.:   6.2
      thresh= 1.642E-08 alpha_mix =  0.300 |ddv_scf|^2 =  1.096E-14

      iter #  10 total cpu time :   604.5 secs   av.it.:   6.9
      thresh= 1.047E-08 alpha_mix =  0.300 |ddv_scf|^2 =  2.200E-16

     End of self-consistent calculation

     Convergence has been achieved 
 
     Number of q in the star =   24
     List of q in the star:
          1   0.416666667  -0.416666667   1.250000000
          2  -1.250000000  -0.416666667  -0.416666667
          3   0.416666667   1.250000000  -0.416666667
          4  -0.416666667  -0.416666667   1.250000000
          5   0.416666667   0.416666667   1.250000000
          6   1.250000000   0.416666667   0.416666667
          7  -1.250000000   0.416666667  -0.416666667
          8   1.250000000  -0.416666667  -0.416666667
          9  -1.250000000  -0.416666667   0.416666667
         10  -0.416666667   1.250000000  -0.416666667
         11  -0.416666667  -1.250000000   0.416666667
         12   0.416666667   1.250000000   0.416666667
         13   0.416666667  -1.250000000  -0.416666667
         14  -0.416666667   1.250000000   0.416666667
         15  -0.416666667   0.416666667   1.250000000
         16  -0.416666667  -1.250000000  -0.416666667
         17   0.416666667  -1.250000000   0.416666667
         18   1.250000000   0.416666667  -0.416666667
         19   1.250000000  -0.416666667   0.416666667
         20  -0.416666667  -0.416666667  -1.250000000
         21  -1.250000000   0.416666667   0.416666667
         22  -0.416666667   0.416666667  -1.250000000
         23   0.416666667  -0.416666667  -1.250000000
         24   0.416666667   0.416666667  -1.250000000

     Diagonalizing the dynamical matrix

     q = (    0.416666667  -0.416666667   1.250000000 ) 

 **************************************************************************
     freq (    1) =       1.176777 [THz] =      39.253053 [cm-1]
     freq (    2) =       1.364568 [THz] =      45.517087 [cm-1]
     freq (    3) =       2.067227 [THz] =      68.955285 [cm-1]
 **************************************************************************
 
     init_run     :      1.14s CPU      2.90s WALL (      28 calls)
     electrons    :     56.71s CPU     64.49s WALL (      28 calls)

     Called by init_run:
     wfcinit      :      0.00s CPU      0.63s WALL (      28 calls)
     potinit      :      0.08s CPU      1.04s WALL (      28 calls)
     hinit0       :      0.62s CPU      0.65s WALL (      28 calls)

     Called by electrons:
     c_bands      :     31.28s CPU     38.22s WALL (      28 calls)
     v_of_rho     :      0.03s CPU      0.58s WALL (      29 calls)

     Called by c_bands:
     init_us_2    :      0.58s CPU      0.62s WALL (   12310 calls)
     cegterg      :     15.34s CPU     16.55s WALL (     939 calls)

     Called by *egterg:
     cdiaghg      :      3.89s CPU      5.28s WALL (   13622 calls)
     h_psi        :     83.91s CPU     90.24s WALL (  129762 calls)
     g_psi        :      0.06s CPU      0.06s WALL (   13084 calls)

     Called by h_psi:
     h_psi:calbec :      4.27s CPU      6.46s WALL (  129762 calls)
     vloc_psi     :     75.93s CPU     79.87s WALL (  129762 calls)
     add_vuspsi   :      2.82s CPU      2.99s WALL (  129762 calls)

     General routines
     calbec       :      7.70s CPU     10.12s WALL (  250881 calls)
     fft          :      1.10s CPU      5.93s WALL (   12304 calls)
     ffts         :      0.07s CPU      0.08s WALL (    1050 calls)
     fftw         :     90.26s CPU     95.58s WALL ( 2046158 calls)
     davcio       :      1.16s CPU      2.77s WALL (   63750 calls)
 
     Parallel routines
 
     PHONON       :   7m43.45s CPU  10m 5.08s WALL

     INITIALIZATION: 
     phq_setup    :     23.76s CPU     33.12s WALL (      28 calls)
     phq_init     :      3.62s CPU      5.44s WALL (      28 calls)
 
     phq_init     :      3.62s CPU      5.44s WALL (      28 calls)
     init_vloc    :      0.01s CPU      0.01s WALL (      29 calls)
     init_us_1    :      0.61s CPU      0.65s WALL (      29 calls)
 
     DYNAMICAL MATRIX:
     dynmat0      :      3.48s CPU      5.29s WALL (      28 calls)
     phqscf       :    357.59s CPU    455.75s WALL (      28 calls)
     dynmatrix    :      3.35s CPU      4.89s WALL (      28 calls)
 
     phqscf       :    357.59s CPU    455.75s WALL (      28 calls)
     solve_linter :    356.84s CPU    443.96s WALL (      81 calls)
     drhodv       :      0.59s CPU      0.63s WALL (      81 calls)
 
     dynmat0      :      3.48s CPU      5.29s WALL (      28 calls)
     dynmat_us    :      3.36s CPU      3.39s WALL (      28 calls)
     d2ionq       :      0.01s CPU      0.01s WALL (      28 calls)
 
     dynmat_us    :      3.36s CPU      3.39s WALL (      28 calls)
 
     phqscf       :    357.59s CPU    455.75s WALL (      28 calls)
     solve_linter :    356.84s CPU    443.96s WALL (      81 calls)
 
     solve_linter :    356.84s CPU    443.96s WALL (      81 calls)
     dvqpsi_us    :      1.26s CPU      1.39s WALL (     807 calls)
     ortho        :      0.81s CPU      0.85s WALL (   10526 calls)
     cgsolve      :     85.67s CPU     90.25s WALL (   10526 calls)
     incdrhoscf   :     11.18s CPU     12.21s WALL (   10526 calls)
     vpsifft      :     10.33s CPU     11.14s WALL (    9719 calls)
     dv_of_drho   :      1.30s CPU      1.33s WALL (    1082 calls)
     mix_pot      :      2.46s CPU     14.45s WALL (    1052 calls)
     psymdvscf    :      2.17s CPU      2.38s WALL (     652 calls)
 
     dvqpsi_us    :      1.26s CPU      1.39s WALL (     807 calls)
     dvqpsi_us_on :      0.38s CPU      0.45s WALL (     807 calls)
 
     cgsolve      :     85.67s CPU     90.25s WALL (   10526 calls)
     ch_psi       :     82.06s CPU     86.42s WALL (  115201 calls)
 
     ch_psi       :     82.06s CPU     86.42s WALL (  115201 calls)
     h_psi        :     83.91s CPU     90.24s WALL (  129762 calls)
     last         :      7.20s CPU      7.59s WALL (  115201 calls)
 
     h_psi        :     83.91s CPU     90.24s WALL (  129762 calls)
     add_vuspsi   :      2.82s CPU      2.99s WALL (  129762 calls)
 
     incdrhoscf   :     11.18s CPU     12.21s WALL (   10526 calls)
 
 
      General routines
     calbec       :      7.70s CPU     10.12s WALL (  250881 calls)
     fft          :      1.10s CPU      5.93s WALL (   12304 calls)
     ffts         :      0.07s CPU      0.08s WALL (    1050 calls)
     fftw         :     90.26s CPU     95.58s WALL ( 2046158 calls)
     davcio       :      1.16s CPU      2.77s WALL (   63750 calls)
     write_rec    :      8.61s CPU     83.62s WALL (    1133 calls)
 
 
     PHONON       :   7m43.45s CPU  10m 5.08s WALL

 
   This run was terminated on:  16:27:46  29Nov2023            

=------------------------------------------------------------------------------=
   JOB DONE.
=------------------------------------------------------------------------------=
