
     Program PHONON v.6.4.1 starts on 23Nov2019 at  2:17: 4 

     This program is part of the open-source Quantum ESPRESSO suite
     for quantum simulation of materials; please cite
         "P. Giannozzi et al., J. Phys.:Condens. Matter 21 395502 (2009);
         "P. Giannozzi et al., J. Phys.:Condens. Matter 29 465901 (2017);
          URL http://www.quantum-espresso.org", 
     in publications or presentations arising from this work. More details at
     http://www.quantum-espresso.org/quote

     Parallel version (MPI & OpenMP), running on      32 processor cores
     Number of MPI processes:                32
     Threads/MPI process:                     1

     MPI processes distributed on     1 nodes
     K-points division:     npool     =      32

     Reading xml data from directory:

     ./pwscf.save/

     IMPORTANT: XC functional enforced from input :
     Exchange-correlation= PBE
                           (   1   4   3   4   0   0   0)
     Any further DFT definition will be discarded
     Please, verify this is what you really want


     G-vector sticks info
     --------------------
     sticks:   dense  smooth     PW     G-vecs:    dense   smooth      PW
     Sum         559     559    163                12183    12183    2017

     Reading collected, re-writing distributed wavefunctions


     Dynamical matrices for ( 4, 4, 3)  uniform grid of q-points
     With a half shift
     (  12 q-points):
       N         xq(1)         xq(2)         xq(3) 
       1   0.125000000   0.216506381   0.145819693
       2   0.125000000   0.216506381  -0.437459078
       3   0.125000000   0.505181556   0.145819693
       4   0.125000000   0.505181556  -0.437459078
       5   0.125000000  -0.360843969   0.145819693
       6   0.125000000  -0.360843969  -0.437459078
       7   0.125000000  -0.072168794   0.145819693
       8   0.125000000  -0.072168794  -0.437459078
       9   0.375000000   0.649519144   0.145819693
      10   0.375000000   0.649519144  -0.437459078
      11   0.375000000  -0.216506381   0.145819693
      12   0.375000000  -0.216506381  -0.437459078
     Because shifted q grid is used, q2r will not work !

     Calculation of q =    0.1250000   0.2165064   0.1458197

     Subspace diagonalization in iterative solution of the eigenvalue problem:
     a serial algorithm will be used

     [opt_tetra]  Optimized tetrahedron method is used.

     G-vector sticks info
     --------------------
     sticks:   dense  smooth     PW     G-vecs:    dense   smooth      PW
     Sum         559     559    187                12183    12183    2281


     Title: 
     Electron-phonon                                                            


     bravais-lattice index     =            0
     lattice parameter (alat)  =       5.8057  a.u.
     unit-cell volume          =     193.7024 (a.u.)^3
     number of atoms/cell      =            3
     number of atomic types    =            2
     number of electrons       =         8.00
     number of Kohn-Sham states=            8
     kinetic-energy cutoff     =      60.0000  Ry
     charge density cutoff     =     240.0000  Ry
     Exchange-correlation= PBE
                           (   1   4   3   4   0   0   0)

     celldm(1)=   5.805736  celldm(2)=   0.000000  celldm(3)=   0.000000
     celldm(4)=   0.000000  celldm(5)=   0.000000  celldm(6)=   0.000000

     crystal axes: (cart. coord. in units of alat)
               a(1) = (   1.000000   0.000000   0.000000 )  
               a(2) = (  -0.500000   0.866025   0.000000 )  
               a(3) = (   0.000000   0.000000   1.142964 )  

     reciprocal axes: (cart. coord. in units 2 pi/alat)
               b(1) = (  1.000000  0.577350 -0.000000 )  
               b(2) = (  0.000000  1.154701  0.000000 )  
               b(3) = (  0.000000 -0.000000  0.874918 )  


     PseudoPot. # 1 for B  read from file:
     ./B.pbe-nc.UPF
     MD5 check sum: 75cd07c0a87b9b912465967514cf4679
     Pseudo is Norm-conserving, Zval =  3.0
     Generated using "atomic" code by A. Dal Corso v.5.0.99 svn rev. 10869
     Using radial grid of 1059 points,  1 beta functions with: 
                l(1) =   1

     PseudoPot. # 2 for Mg read from file:
     ./Mg.pbe-n-nc.UPF
     MD5 check sum: fdc482938bc77a1b5407024e0eeca3bc
     Pseudo is Norm-conserving + core correction, Zval =  2.0
     Generated using "atomic" code by A. Dal Corso v.5.0.99 svn rev. 10869
     Using radial grid of 1129 points,  2 beta functions with: 
                l(1) =   0
                l(2) =   1

     atomic species   valence    mass     pseudopotential
        B              3.00    10.81100     B ( 1.00)
        Mg             2.00    24.30500     Mg( 1.00)

     24 Sym. Ops., with inversion, found



   Cartesian axes

     site n.     atom                  positions (alat units)
         1           Mg  tau(   1) = (   0.0000000   0.0000000   0.0000000  )
         2           B   tau(   2) = (  -0.0000005   0.5773505   0.5714820  )
         3           B   tau(   3) = (   0.5000005   0.2886748   0.5714820  )

     number of k points=  3264 (tetrahedron method)

     Number of k-points >= 100: set verbosity='high' to print them.

     Dense  grid:    12183 G-vectors     FFT dimensions: (  30,  30,  36)

     Estimated max dynamical RAM per process >       6.45 MB

     Estimated total dynamical RAM >     206.48 MB

     The potential is recalculated from file :
     ./_ph0/pwscf.q_1/pwscf.save/charge-density

     Starting wfcs are   12 atomic wfcs

     Band Structure Calculation
     Davidson diagonalization with overlap

     ethr =  1.25E-10,  avg # of iterations = 18.9

     total cpu time spent up to now is       30.3 secs

     End of band structure calculation

     Number of k-points >= 100: set verbosity='high' to print the bands.

     the Fermi energy is     7.6902 ev

     Writing output data file ./_ph0/pwscf.q_1/pwscf.save/
 
     [dfpt_tetra]  Dos(E_F)[/Ry] :   0.9497254E+01

     Electron-phonon                                                            

     bravais-lattice index     =            0
     lattice parameter (alat)  =       5.8057  a.u.
     unit-cell volume          =     193.7024 (a.u.)^3
     number of atoms/cell      =            3
     number of atomic types    =            2
     kinetic-energy cut-off    =      60.0000  Ry
     charge density cut-off    =     240.0000  Ry
     convergence threshold     =      1.0E-12
     beta                      =       0.7000
     number of iterations used =            4
     Exchange-correlation= PBE
                           (   1   4   3   4   0   0   0)


     celldm(1)=    5.80574  celldm(2)=    0.00000  celldm(3)=    0.00000
     celldm(4)=    0.00000  celldm(5)=    0.00000  celldm(6)=    0.00000

     crystal axes: (cart. coord. in units of alat)
               a(1) = (  1.0000  0.0000  0.0000 )  
               a(2) = ( -0.5000  0.8660  0.0000 )  
               a(3) = (  0.0000  0.0000  1.1430 )  

     reciprocal axes: (cart. coord. in units 2 pi/alat)
               b(1) = (  1.0000  0.5774 -0.0000 )  
               b(2) = (  0.0000  1.1547  0.0000 )  
               b(3) = (  0.0000 -0.0000  0.8749 )  


     Atoms inside the unit cell: 

     Cartesian axes

     site n.  atom      mass           positions (alat units)
        1     Mg  24.3050   tau(    1) = (    0.00000    0.00000    0.00000  )
        2     B   10.8110   tau(    2) = (   -0.00000    0.57735    0.57148  )
        3     B   10.8110   tau(    3) = (    0.50000    0.28867    0.57148  )

     Computing dynamical matrix for 
                    q = (   0.1250000   0.2165064   0.1458197 )

      2 Sym.Ops. (no q -> -q+G )


     G cutoff =  204.9114  (  12183 G-vectors)     FFT grid: ( 30, 30, 36)
     number of k points=  3264

     PseudoPot. # 1 for B  read from file:
     ./B.pbe-nc.UPF
     MD5 check sum: 75cd07c0a87b9b912465967514cf4679
     Pseudo is Norm-conserving, Zval =  3.0
     Generated using "atomic" code by A. Dal Corso v.5.0.99 svn rev. 10869
     Using radial grid of 1059 points,  1 beta functions with: 
                l(1) =   1

     PseudoPot. # 2 for Mg read from file:
     ./Mg.pbe-n-nc.UPF
     MD5 check sum: fdc482938bc77a1b5407024e0eeca3bc
     Pseudo is Norm-conserving + core correction, Zval =  2.0
     Generated using "atomic" code by A. Dal Corso v.5.0.99 svn rev. 10869
     Using radial grid of 1129 points,  2 beta functions with: 
                l(1) =   0
                l(2) =   1


     Atomic displacements:
     There are   9 irreducible representations

     Representation     1      1 modes -  To be done

     Representation     2      1 modes -  To be done

     Representation     3      1 modes -  To be done

     Representation     4      1 modes -  To be done

     Representation     5      1 modes -  To be done

     Representation     6      1 modes -  To be done

     Representation     7      1 modes -  To be done

     Representation     8      1 modes -  To be done

     Representation     9      1 modes -  To be done


     PHONON       :     29.12s CPU     32.94s WALL

     Reading dVscf from file dv
     Reading dynamics matrix from file matdyn1

     [elph_tetra]   Lowest band which contains FS :          3
     [elph_tetra]  Highest band which contains FS :          5
     [elph_tetra]    # of bands which contains FS :          3

     Tetrahedron method
     DOS =  4.748627 states/spin/Ry/Unit Cell at Ef=  7.690239 eV
     double delta at Ef = 43.731370
     lambda(    1)=  0.0222   gamma=    3.23 GHz
     lambda(    2)=  0.0109   gamma=    1.90 GHz
     lambda(    3)=  0.0383   gamma=   10.93 GHz
     lambda(    4)=  0.0119   gamma=    7.30 GHz
     lambda(    5)=  0.0529   gamma=   34.12 GHz
     lambda(    6)=  0.0256   gamma=   21.74 GHz
     lambda(    7)=  0.3013   gamma=  494.60 GHz
     lambda(    8)=  0.3113   gamma=  549.06 GHz
     lambda(    9)=  0.1548   gamma=  285.64 GHz

     Number of q in the star =   12
     List of q in the star:
          1   0.125000000   0.216506381   0.145819693
          2   0.125000000   0.216506381  -0.145819693
          3  -0.125000000  -0.216506381  -0.145819693
          4  -0.125000000   0.216506381   0.145819693
          5   0.250000000   0.000000000   0.145819693
          6  -0.250000000  -0.000000000   0.145819693
          7   0.125000000  -0.216506381   0.145819693
          8   0.250000000   0.000000000  -0.145819693
          9  -0.250000000  -0.000000000  -0.145819693
         10  -0.125000000   0.216506381  -0.145819693
         11   0.125000000  -0.216506381  -0.145819693
         12  -0.125000000  -0.216506381   0.145819693

     Calculation of q =    0.1250000   0.2165064  -0.4374591
     [opt_tetra]  Optimized tetrahedron method is used.

     G-vector sticks info
     --------------------
     sticks:   dense  smooth     PW     G-vecs:    dense   smooth      PW
     Sum         559     559    199                12183    12183    2473


     Title: 
     Electron-phonon                                                            


     bravais-lattice index     =            0
     lattice parameter (alat)  =       5.8057  a.u.
     unit-cell volume          =     193.7024 (a.u.)^3
     number of atoms/cell      =            3
     number of atomic types    =            2
     number of electrons       =         8.00
     number of Kohn-Sham states=            8
     kinetic-energy cutoff     =      60.0000  Ry
     charge density cutoff     =     240.0000  Ry
     Exchange-correlation= PBE
                           (   1   4   3   4   0   0   0)

     celldm(1)=   5.805736  celldm(2)=   0.000000  celldm(3)=   0.000000
     celldm(4)=   0.000000  celldm(5)=   0.000000  celldm(6)=   0.000000

     crystal axes: (cart. coord. in units of alat)
               a(1) = (   1.000000   0.000000   0.000000 )  
               a(2) = (  -0.500000   0.866025   0.000000 )  
               a(3) = (   0.000000   0.000000   1.142964 )  

     reciprocal axes: (cart. coord. in units 2 pi/alat)
               b(1) = (  1.000000  0.577350 -0.000000 )  
               b(2) = (  0.000000  1.154701  0.000000 )  
               b(3) = (  0.000000 -0.000000  0.874918 )  


     PseudoPot. # 1 for B  read from file:
     ./B.pbe-nc.UPF
     MD5 check sum: 75cd07c0a87b9b912465967514cf4679
     Pseudo is Norm-conserving, Zval =  3.0
     Generated using "atomic" code by A. Dal Corso v.5.0.99 svn rev. 10869
     Using radial grid of 1059 points,  1 beta functions with: 
                l(1) =   1

     PseudoPot. # 2 for Mg read from file:
     ./Mg.pbe-n-nc.UPF
     MD5 check sum: fdc482938bc77a1b5407024e0eeca3bc
     Pseudo is Norm-conserving + core correction, Zval =  2.0
     Generated using "atomic" code by A. Dal Corso v.5.0.99 svn rev. 10869
     Using radial grid of 1129 points,  2 beta functions with: 
                l(1) =   0
                l(2) =   1

     atomic species   valence    mass     pseudopotential
        B              3.00    10.81100     B ( 1.00)
        Mg             2.00    24.30500     Mg( 1.00)

     24 Sym. Ops., with inversion, found



   Cartesian axes

     site n.     atom                  positions (alat units)
         1           Mg  tau(   1) = (   0.0000000   0.0000000   0.0000000  )
         2           B   tau(   2) = (  -0.0000005   0.5773505   0.5714820  )
         3           B   tau(   3) = (   0.5000005   0.2886748   0.5714820  )

     number of k points=  1904 (tetrahedron method)

     Number of k-points >= 100: set verbosity='high' to print them.

     Dense  grid:    12183 G-vectors     FFT dimensions: (  30,  30,  36)

     Estimated max dynamical RAM per process >       6.46 MB

     Estimated total dynamical RAM >     206.57 MB

     The potential is recalculated from file :
     ./_ph0/pwscf.q_2/pwscf.save/charge-density

     Starting wfcs are   12 atomic wfcs

     Band Structure Calculation
     Davidson diagonalization with overlap

     ethr =  1.25E-10,  avg # of iterations = 18.5

     total cpu time spent up to now is       49.9 secs

     End of band structure calculation

     Number of k-points >= 100: set verbosity='high' to print the bands.

     the Fermi energy is     7.6902 ev

     Writing output data file ./_ph0/pwscf.q_2/pwscf.save/
 
     [dfpt_tetra]  Dos(E_F)[/Ry] :   0.9497255E+01

     Electron-phonon                                                            

     bravais-lattice index     =            0
     lattice parameter (alat)  =       5.8057  a.u.
     unit-cell volume          =     193.7024 (a.u.)^3
     number of atoms/cell      =            3
     number of atomic types    =            2
     kinetic-energy cut-off    =      60.0000  Ry
     charge density cut-off    =     240.0000  Ry
     convergence threshold     =      1.0E-12
     beta                      =       0.7000
     number of iterations used =            4
     Exchange-correlation= PBE
                           (   1   4   3   4   0   0   0)


     celldm(1)=    5.80574  celldm(2)=    0.00000  celldm(3)=    0.00000
     celldm(4)=    0.00000  celldm(5)=    0.00000  celldm(6)=    0.00000

     crystal axes: (cart. coord. in units of alat)
               a(1) = (  1.0000  0.0000  0.0000 )  
               a(2) = ( -0.5000  0.8660  0.0000 )  
               a(3) = (  0.0000  0.0000  1.1430 )  

     reciprocal axes: (cart. coord. in units 2 pi/alat)
               b(1) = (  1.0000  0.5774 -0.0000 )  
               b(2) = (  0.0000  1.1547  0.0000 )  
               b(3) = (  0.0000 -0.0000  0.8749 )  


     Atoms inside the unit cell: 

     Cartesian axes

     site n.  atom      mass           positions (alat units)
        1     Mg  24.3050   tau(    1) = (    0.00000    0.00000    0.00000  )
        2     B   10.8110   tau(    2) = (   -0.00000    0.57735    0.57148  )
        3     B   10.8110   tau(    3) = (    0.50000    0.28867    0.57148  )

     Computing dynamical matrix for 
                    q = (   0.1250000   0.2165064  -0.4374591 )

      4 Sym.Ops. (no q -> -q+G )


     G cutoff =  204.9114  (  12183 G-vectors)     FFT grid: ( 30, 30, 36)
     number of k points=  1904

     PseudoPot. # 1 for B  read from file:
     ./B.pbe-nc.UPF
     MD5 check sum: 75cd07c0a87b9b912465967514cf4679
     Pseudo is Norm-conserving, Zval =  3.0
     Generated using "atomic" code by A. Dal Corso v.5.0.99 svn rev. 10869
     Using radial grid of 1059 points,  1 beta functions with: 
                l(1) =   1

     PseudoPot. # 2 for Mg read from file:
     ./Mg.pbe-n-nc.UPF
     MD5 check sum: fdc482938bc77a1b5407024e0eeca3bc
     Pseudo is Norm-conserving + core correction, Zval =  2.0
     Generated using "atomic" code by A. Dal Corso v.5.0.99 svn rev. 10869
     Using radial grid of 1129 points,  2 beta functions with: 
                l(1) =   0
                l(2) =   1


     Atomic displacements:
     There are   9 irreducible representations

     Representation     1      1 modes -  To be done

     Representation     2      1 modes -  To be done

     Representation     3      1 modes -  To be done

     Representation     4      1 modes -  To be done

     Representation     5      1 modes -  To be done

     Representation     6      1 modes -  To be done

     Representation     7      1 modes -  To be done

     Representation     8      1 modes -  To be done

     Representation     9      1 modes -  To be done


     PHONON       :     56.32s CPU   1m 2.30s WALL

     Reading dVscf from file dv
     Reading dynamics matrix from file matdyn2

     [elph_tetra]   Lowest band which contains FS :          3
     [elph_tetra]  Highest band which contains FS :          5
     [elph_tetra]    # of bands which contains FS :          3

     Tetrahedron method
     DOS =  4.748627 states/spin/Ry/Unit Cell at Ef=  7.690239 eV
     double delta at Ef = 43.239223
     lambda(    1)=  0.0011   gamma=    0.27 GHz
     lambda(    2)=  0.0003   gamma=    0.06 GHz
     lambda(    3)=  0.0959   gamma=   31.49 GHz
     lambda(    4)=  0.0166   gamma=    9.58 GHz
     lambda(    5)=  0.0043   gamma=    2.93 GHz
     lambda(    6)=  0.0561   gamma=   47.45 GHz
     lambda(    7)=  0.0165   gamma=   26.78 GHz
     lambda(    8)=  0.6272   gamma= 1031.75 GHz
     lambda(    9)=  0.0031   gamma=    6.43 GHz

     Number of q in the star =    6
     List of q in the star:
          1   0.125000000   0.216506381  -0.437459078
          2  -0.125000000   0.216506381  -0.437459078
          3   0.250000000   0.000000000  -0.437459078
          4  -0.250000000  -0.000000000  -0.437459078
          5   0.125000000  -0.216506381  -0.437459078
          6  -0.125000000  -0.216506381   0.437459078

     Calculation of q =    0.1250000   0.5051816   0.1458197
     [opt_tetra]  Optimized tetrahedron method is used.

     G-vector sticks info
     --------------------
     sticks:   dense  smooth     PW     G-vecs:    dense   smooth      PW
     Sum         559     559    199                12183    12183    2473


     Title: 
     Electron-phonon                                                            


     bravais-lattice index     =            0
     lattice parameter (alat)  =       5.8057  a.u.
     unit-cell volume          =     193.7024 (a.u.)^3
     number of atoms/cell      =            3
     number of atomic types    =            2
     number of electrons       =         8.00
     number of Kohn-Sham states=            8
     kinetic-energy cutoff     =      60.0000  Ry
     charge density cutoff     =     240.0000  Ry
     Exchange-correlation= PBE
                           (   1   4   3   4   0   0   0)

     celldm(1)=   5.805736  celldm(2)=   0.000000  celldm(3)=   0.000000
     celldm(4)=   0.000000  celldm(5)=   0.000000  celldm(6)=   0.000000

     crystal axes: (cart. coord. in units of alat)
               a(1) = (   1.000000   0.000000   0.000000 )  
               a(2) = (  -0.500000   0.866025   0.000000 )  
               a(3) = (   0.000000   0.000000   1.142964 )  

     reciprocal axes: (cart. coord. in units 2 pi/alat)
               b(1) = (  1.000000  0.577350 -0.000000 )  
               b(2) = (  0.000000  1.154701  0.000000 )  
               b(3) = (  0.000000 -0.000000  0.874918 )  


     PseudoPot. # 1 for B  read from file:
     ./B.pbe-nc.UPF
     MD5 check sum: 75cd07c0a87b9b912465967514cf4679
     Pseudo is Norm-conserving, Zval =  3.0
     Generated using "atomic" code by A. Dal Corso v.5.0.99 svn rev. 10869
     Using radial grid of 1059 points,  1 beta functions with: 
                l(1) =   1

     PseudoPot. # 2 for Mg read from file:
     ./Mg.pbe-n-nc.UPF
     MD5 check sum: fdc482938bc77a1b5407024e0eeca3bc
     Pseudo is Norm-conserving + core correction, Zval =  2.0
     Generated using "atomic" code by A. Dal Corso v.5.0.99 svn rev. 10869
     Using radial grid of 1129 points,  2 beta functions with: 
                l(1) =   0
                l(2) =   1

     atomic species   valence    mass     pseudopotential
        B              3.00    10.81100     B ( 1.00)
        Mg             2.00    24.30500     Mg( 1.00)

     24 Sym. Ops., with inversion, found



   Cartesian axes

     site n.     atom                  positions (alat units)
         1           Mg  tau(   1) = (   0.0000000   0.0000000   0.0000000  )
         2           B   tau(   2) = (  -0.0000005   0.5773505   0.5714820  )
         3           B   tau(   3) = (   0.5000005   0.2886748   0.5714820  )

     number of k points=  6144 (tetrahedron method)

     Number of k-points >= 100: set verbosity='high' to print them.

     Dense  grid:    12183 G-vectors     FFT dimensions: (  30,  30,  36)

     Estimated max dynamical RAM per process >       6.46 MB

     Estimated total dynamical RAM >     206.59 MB

     The potential is recalculated from file :
     ./_ph0/pwscf.q_3/pwscf.save/charge-density

     Starting wfcs are   12 atomic wfcs

     Band Structure Calculation
     Davidson diagonalization with overlap

     ethr =  1.25E-10,  avg # of iterations = 19.0

     total cpu time spent up to now is      105.2 secs

     End of band structure calculation

     Number of k-points >= 100: set verbosity='high' to print the bands.

     the Fermi energy is     7.6902 ev

     Writing output data file ./_ph0/pwscf.q_3/pwscf.save/
 
     [dfpt_tetra]  Dos(E_F)[/Ry] :   0.9497254E+01

     Electron-phonon                                                            

     bravais-lattice index     =            0
     lattice parameter (alat)  =       5.8057  a.u.
     unit-cell volume          =     193.7024 (a.u.)^3
     number of atoms/cell      =            3
     number of atomic types    =            2
     kinetic-energy cut-off    =      60.0000  Ry
     charge density cut-off    =     240.0000  Ry
     convergence threshold     =      1.0E-12
     beta                      =       0.7000
     number of iterations used =            4
     Exchange-correlation= PBE
                           (   1   4   3   4   0   0   0)


     celldm(1)=    5.80574  celldm(2)=    0.00000  celldm(3)=    0.00000
     celldm(4)=    0.00000  celldm(5)=    0.00000  celldm(6)=    0.00000

     crystal axes: (cart. coord. in units of alat)
               a(1) = (  1.0000  0.0000  0.0000 )  
               a(2) = ( -0.5000  0.8660  0.0000 )  
               a(3) = (  0.0000  0.0000  1.1430 )  

     reciprocal axes: (cart. coord. in units 2 pi/alat)
               b(1) = (  1.0000  0.5774 -0.0000 )  
               b(2) = (  0.0000  1.1547  0.0000 )  
               b(3) = (  0.0000 -0.0000  0.8749 )  


     Atoms inside the unit cell: 

     Cartesian axes

     site n.  atom      mass           positions (alat units)
        1     Mg  24.3050   tau(    1) = (    0.00000    0.00000    0.00000  )
        2     B   10.8110   tau(    2) = (   -0.00000    0.57735    0.57148  )
        3     B   10.8110   tau(    3) = (    0.50000    0.28867    0.57148  )

     Computing dynamical matrix for 
                    q = (   0.1250000   0.5051816   0.1458197 )

     No symmetry!

     G cutoff =  204.9114  (  12183 G-vectors)     FFT grid: ( 30, 30, 36)
     number of k points=  6144

     PseudoPot. # 1 for B  read from file:
     ./B.pbe-nc.UPF
     MD5 check sum: 75cd07c0a87b9b912465967514cf4679
     Pseudo is Norm-conserving, Zval =  3.0
     Generated using "atomic" code by A. Dal Corso v.5.0.99 svn rev. 10869
     Using radial grid of 1059 points,  1 beta functions with: 
                l(1) =   1

     PseudoPot. # 2 for Mg read from file:
     ./Mg.pbe-n-nc.UPF
     MD5 check sum: fdc482938bc77a1b5407024e0eeca3bc
     Pseudo is Norm-conserving + core correction, Zval =  2.0
     Generated using "atomic" code by A. Dal Corso v.5.0.99 svn rev. 10869
     Using radial grid of 1129 points,  2 beta functions with: 
                l(1) =   0
                l(2) =   1


     Atomic displacements:
     There are   9 irreducible representations

     Representation     1      1 modes -  To be done

     Representation     2      1 modes -  To be done

     Representation     3      1 modes -  To be done

     Representation     4      1 modes -  To be done

     Representation     5      1 modes -  To be done

     Representation     6      1 modes -  To be done

     Representation     7      1 modes -  To be done

     Representation     8      1 modes -  To be done

     Representation     9      1 modes -  To be done


     PHONON       :   1m52.20s CPU   2m 4.81s WALL

     Reading dVscf from file dv
     Reading dynamics matrix from file matdyn3

     [elph_tetra]   Lowest band which contains FS :          3
     [elph_tetra]  Highest band which contains FS :          5
     [elph_tetra]    # of bands which contains FS :          3

     Tetrahedron method
     DOS =  4.748627 states/spin/Ry/Unit Cell at Ef=  7.690239 eV
     double delta at Ef = 43.213525
     lambda(    1)=  0.0088   gamma=    2.40 GHz
     lambda(    2)=  0.0059   gamma=    1.63 GHz
     lambda(    3)=  0.0160   gamma=    6.47 GHz
     lambda(    4)=  0.1495   gamma=  110.34 GHz
     lambda(    5)=  0.0013   gamma=    1.33 GHz
     lambda(    6)=  0.1039   gamma=  122.36 GHz
     lambda(    7)=  0.0109   gamma=   21.75 GHz
     lambda(    8)=  0.0198   gamma=   45.58 GHz
     lambda(    9)=  0.0081   gamma=   20.15 GHz

     Number of q in the star =   24
     List of q in the star:
          1   0.125000000   0.505181556   0.145819693
          2   0.375000000   0.360843969   0.145819693
          3   0.125000000   0.505181556  -0.145819693
          4   0.375000000   0.360843969  -0.145819693
          5  -0.375000000   0.360843968   0.145819693
          6   0.500000000   0.144337588   0.145819693
          7  -0.500000000  -0.144337588   0.145819693
          8   0.375000000  -0.360843968   0.145819693
          9  -0.375000000  -0.360843969  -0.145819693
         10   0.500000000  -0.144337587  -0.145819693
         11  -0.500000000   0.144337587  -0.145819693
         12  -0.125000000   0.505181556  -0.145819693
         13  -0.125000000  -0.505181556  -0.145819693
         14   0.125000000  -0.505181556  -0.145819693
         15   0.125000000  -0.505181556   0.145819693
         16  -0.125000000   0.505181556   0.145819693
         17   0.375000000  -0.360843968  -0.145819693
         18  -0.500000000  -0.144337588  -0.145819693
         19   0.500000000   0.144337588  -0.145819693
         20  -0.375000000   0.360843968  -0.145819693
         21  -0.125000000  -0.505181556   0.145819693
         22  -0.500000000   0.144337587   0.145819693
         23   0.500000000  -0.144337587   0.145819693
         24  -0.375000000  -0.360843969   0.145819693

     Calculation of q =    0.1250000   0.5051816  -0.4374591
     [opt_tetra]  Optimized tetrahedron method is used.

     G-vector sticks info
     --------------------
     sticks:   dense  smooth     PW     G-vecs:    dense   smooth      PW
     Sum         559     559    199                12183    12183    2617


     Title: 
     Electron-phonon                                                            


     bravais-lattice index     =            0
     lattice parameter (alat)  =       5.8057  a.u.
     unit-cell volume          =     193.7024 (a.u.)^3
     number of atoms/cell      =            3
     number of atomic types    =            2
     number of electrons       =         8.00
     number of Kohn-Sham states=            8
     kinetic-energy cutoff     =      60.0000  Ry
     charge density cutoff     =     240.0000  Ry
     Exchange-correlation= PBE
                           (   1   4   3   4   0   0   0)

     celldm(1)=   5.805736  celldm(2)=   0.000000  celldm(3)=   0.000000
     celldm(4)=   0.000000  celldm(5)=   0.000000  celldm(6)=   0.000000

     crystal axes: (cart. coord. in units of alat)
               a(1) = (   1.000000   0.000000   0.000000 )  
               a(2) = (  -0.500000   0.866025   0.000000 )  
               a(3) = (   0.000000   0.000000   1.142964 )  

     reciprocal axes: (cart. coord. in units 2 pi/alat)
               b(1) = (  1.000000  0.577350 -0.000000 )  
               b(2) = (  0.000000  1.154701  0.000000 )  
               b(3) = (  0.000000 -0.000000  0.874918 )  


     PseudoPot. # 1 for B  read from file:
     ./B.pbe-nc.UPF
     MD5 check sum: 75cd07c0a87b9b912465967514cf4679
     Pseudo is Norm-conserving, Zval =  3.0
     Generated using "atomic" code by A. Dal Corso v.5.0.99 svn rev. 10869
     Using radial grid of 1059 points,  1 beta functions with: 
                l(1) =   1

     PseudoPot. # 2 for Mg read from file:
     ./Mg.pbe-n-nc.UPF
     MD5 check sum: fdc482938bc77a1b5407024e0eeca3bc
     Pseudo is Norm-conserving + core correction, Zval =  2.0
     Generated using "atomic" code by A. Dal Corso v.5.0.99 svn rev. 10869
     Using radial grid of 1129 points,  2 beta functions with: 
                l(1) =   0
                l(2) =   1

     atomic species   valence    mass     pseudopotential
        B              3.00    10.81100     B ( 1.00)
        Mg             2.00    24.30500     Mg( 1.00)

     24 Sym. Ops., with inversion, found



   Cartesian axes

     site n.     atom                  positions (alat units)
         1           Mg  tau(   1) = (   0.0000000   0.0000000   0.0000000  )
         2           B   tau(   2) = (  -0.0000005   0.5773505   0.5714820  )
         3           B   tau(   3) = (   0.5000005   0.2886748   0.5714820  )

     number of k points=  3584 (tetrahedron method)

     Number of k-points >= 100: set verbosity='high' to print them.

     Dense  grid:    12183 G-vectors     FFT dimensions: (  30,  30,  36)

     Estimated max dynamical RAM per process >       6.46 MB

     Estimated total dynamical RAM >     206.65 MB

     The potential is recalculated from file :
     ./_ph0/pwscf.q_4/pwscf.save/charge-density

     Starting wfcs are   12 atomic wfcs

     Band Structure Calculation
     Davidson diagonalization with overlap

     ethr =  1.25E-10,  avg # of iterations = 18.7

     total cpu time spent up to now is      139.1 secs

     End of band structure calculation

     Number of k-points >= 100: set verbosity='high' to print the bands.

     the Fermi energy is     7.6902 ev

     Writing output data file ./_ph0/pwscf.q_4/pwscf.save/
 
     [dfpt_tetra]  Dos(E_F)[/Ry] :   0.9497254E+01

     Electron-phonon                                                            

     bravais-lattice index     =            0
     lattice parameter (alat)  =       5.8057  a.u.
     unit-cell volume          =     193.7024 (a.u.)^3
     number of atoms/cell      =            3
     number of atomic types    =            2
     kinetic-energy cut-off    =      60.0000  Ry
     charge density cut-off    =     240.0000  Ry
     convergence threshold     =      1.0E-12
     beta                      =       0.7000
     number of iterations used =            4
     Exchange-correlation= PBE
                           (   1   4   3   4   0   0   0)


     celldm(1)=    5.80574  celldm(2)=    0.00000  celldm(3)=    0.00000
     celldm(4)=    0.00000  celldm(5)=    0.00000  celldm(6)=    0.00000

     crystal axes: (cart. coord. in units of alat)
               a(1) = (  1.0000  0.0000  0.0000 )  
               a(2) = ( -0.5000  0.8660  0.0000 )  
               a(3) = (  0.0000  0.0000  1.1430 )  

     reciprocal axes: (cart. coord. in units 2 pi/alat)
               b(1) = (  1.0000  0.5774 -0.0000 )  
               b(2) = (  0.0000  1.1547  0.0000 )  
               b(3) = (  0.0000 -0.0000  0.8749 )  


     Atoms inside the unit cell: 

     Cartesian axes

     site n.  atom      mass           positions (alat units)
        1     Mg  24.3050   tau(    1) = (    0.00000    0.00000    0.00000  )
        2     B   10.8110   tau(    2) = (   -0.00000    0.57735    0.57148  )
        3     B   10.8110   tau(    3) = (    0.50000    0.28867    0.57148  )

     Computing dynamical matrix for 
                    q = (   0.1250000   0.5051816  -0.4374591 )

      2 Sym.Ops. (no q -> -q+G )


     G cutoff =  204.9114  (  12183 G-vectors)     FFT grid: ( 30, 30, 36)
     number of k points=  3584

     PseudoPot. # 1 for B  read from file:
     ./B.pbe-nc.UPF
     MD5 check sum: 75cd07c0a87b9b912465967514cf4679
     Pseudo is Norm-conserving, Zval =  3.0
     Generated using "atomic" code by A. Dal Corso v.5.0.99 svn rev. 10869
     Using radial grid of 1059 points,  1 beta functions with: 
                l(1) =   1

     PseudoPot. # 2 for Mg read from file:
     ./Mg.pbe-n-nc.UPF
     MD5 check sum: fdc482938bc77a1b5407024e0eeca3bc
     Pseudo is Norm-conserving + core correction, Zval =  2.0
     Generated using "atomic" code by A. Dal Corso v.5.0.99 svn rev. 10869
     Using radial grid of 1129 points,  2 beta functions with: 
                l(1) =   0
                l(2) =   1


     Atomic displacements:
     There are   9 irreducible representations

     Representation     1      1 modes -  To be done

     Representation     2      1 modes -  To be done

     Representation     3      1 modes -  To be done

     Representation     4      1 modes -  To be done

     Representation     5      1 modes -  To be done

     Representation     6      1 modes -  To be done

     Representation     7      1 modes -  To be done

     Representation     8      1 modes -  To be done

     Representation     9      1 modes -  To be done


     PHONON       :   2m39.13s CPU   2m56.24s WALL

     Reading dVscf from file dv
     Reading dynamics matrix from file matdyn4

     [elph_tetra]   Lowest band which contains FS :          3
     [elph_tetra]  Highest band which contains FS :          5
     [elph_tetra]    # of bands which contains FS :          3

     Tetrahedron method
     DOS =  4.748627 states/spin/Ry/Unit Cell at Ef=  7.690239 eV
     double delta at Ef = 47.769176
     lambda(    1)=  0.0178   gamma=    5.07 GHz
     lambda(    2)=  0.0034   gamma=    1.00 GHz
     lambda(    3)=  0.0095   gamma=    3.55 GHz
     lambda(    4)=  0.1411   gamma=  126.43 GHz
     lambda(    5)=  0.0021   gamma=    2.19 GHz
     lambda(    6)=  0.0950   gamma=  115.50 GHz
     lambda(    7)=  0.0046   gamma=    9.33 GHz
     lambda(    8)=  0.0607   gamma=  138.61 GHz
     lambda(    9)=  0.0054   gamma=   13.60 GHz

     Number of q in the star =   12
     List of q in the star:
          1   0.125000000   0.505181556  -0.437459078
          2   0.375000000   0.360843969  -0.437459078
          3  -0.375000000   0.360843968  -0.437459078
          4   0.500000000   0.144337588  -0.437459078
          5  -0.500000000  -0.144337588  -0.437459078
          6   0.375000000  -0.360843968  -0.437459078
          7  -0.375000000  -0.360843969   0.437459078
          8   0.500000000  -0.144337587   0.437459078
          9  -0.500000000   0.144337587   0.437459078
         10  -0.125000000   0.505181556   0.437459078
         11  -0.125000000  -0.505181556   0.437459078
         12   0.125000000  -0.505181556   0.437459078

     Calculation of q =    0.1250000  -0.3608440   0.1458197
     [opt_tetra]  Optimized tetrahedron method is used.

     G-vector sticks info
     --------------------
     sticks:   dense  smooth     PW     G-vecs:    dense   smooth      PW
     Sum         559     559    187                12183    12183    2377


     Title: 
     Electron-phonon                                                            


     bravais-lattice index     =            0
     lattice parameter (alat)  =       5.8057  a.u.
     unit-cell volume          =     193.7024 (a.u.)^3
     number of atoms/cell      =            3
     number of atomic types    =            2
     number of electrons       =         8.00
     number of Kohn-Sham states=            8
     kinetic-energy cutoff     =      60.0000  Ry
     charge density cutoff     =     240.0000  Ry
     Exchange-correlation= PBE
                           (   1   4   3   4   0   0   0)

     celldm(1)=   5.805736  celldm(2)=   0.000000  celldm(3)=   0.000000
     celldm(4)=   0.000000  celldm(5)=   0.000000  celldm(6)=   0.000000

     crystal axes: (cart. coord. in units of alat)
               a(1) = (   1.000000   0.000000   0.000000 )  
               a(2) = (  -0.500000   0.866025   0.000000 )  
               a(3) = (   0.000000   0.000000   1.142964 )  

     reciprocal axes: (cart. coord. in units 2 pi/alat)
               b(1) = (  1.000000  0.577350 -0.000000 )  
               b(2) = (  0.000000  1.154701  0.000000 )  
               b(3) = (  0.000000 -0.000000  0.874918 )  


     PseudoPot. # 1 for B  read from file:
     ./B.pbe-nc.UPF
     MD5 check sum: 75cd07c0a87b9b912465967514cf4679
     Pseudo is Norm-conserving, Zval =  3.0
     Generated using "atomic" code by A. Dal Corso v.5.0.99 svn rev. 10869
     Using radial grid of 1059 points,  1 beta functions with: 
                l(1) =   1

     PseudoPot. # 2 for Mg read from file:
     ./Mg.pbe-n-nc.UPF
     MD5 check sum: fdc482938bc77a1b5407024e0eeca3bc
     Pseudo is Norm-conserving + core correction, Zval =  2.0
     Generated using "atomic" code by A. Dal Corso v.5.0.99 svn rev. 10869
     Using radial grid of 1129 points,  2 beta functions with: 
                l(1) =   0
                l(2) =   1

     atomic species   valence    mass     pseudopotential
        B              3.00    10.81100     B ( 1.00)
        Mg             2.00    24.30500     Mg( 1.00)

     24 Sym. Ops., with inversion, found



   Cartesian axes

     site n.     atom                  positions (alat units)
         1           Mg  tau(   1) = (   0.0000000   0.0000000   0.0000000  )
         2           B   tau(   2) = (  -0.0000005   0.5773505   0.5714820  )
         3           B   tau(   3) = (   0.5000005   0.2886748   0.5714820  )

     number of k points=  6144 (tetrahedron method)

     Number of k-points >= 100: set verbosity='high' to print them.

     Dense  grid:    12183 G-vectors     FFT dimensions: (  30,  30,  36)

     Estimated max dynamical RAM per process >       6.45 MB

     Estimated total dynamical RAM >     206.53 MB

     The potential is recalculated from file :
     ./_ph0/pwscf.q_5/pwscf.save/charge-density

     Starting wfcs are   12 atomic wfcs

     Band Structure Calculation
     Davidson diagonalization with overlap

     ethr =  1.25E-10,  avg # of iterations = 19.0

     total cpu time spent up to now is      194.2 secs

     End of band structure calculation

     Number of k-points >= 100: set verbosity='high' to print the bands.

     the Fermi energy is     7.6902 ev

     Writing output data file ./_ph0/pwscf.q_5/pwscf.save/
 
     [dfpt_tetra]  Dos(E_F)[/Ry] :   0.9497254E+01

     Electron-phonon                                                            

     bravais-lattice index     =            0
     lattice parameter (alat)  =       5.8057  a.u.
     unit-cell volume          =     193.7024 (a.u.)^3
     number of atoms/cell      =            3
     number of atomic types    =            2
     kinetic-energy cut-off    =      60.0000  Ry
     charge density cut-off    =     240.0000  Ry
     convergence threshold     =      1.0E-12
     beta                      =       0.7000
     number of iterations used =            4
     Exchange-correlation= PBE
                           (   1   4   3   4   0   0   0)


     celldm(1)=    5.80574  celldm(2)=    0.00000  celldm(3)=    0.00000
     celldm(4)=    0.00000  celldm(5)=    0.00000  celldm(6)=    0.00000

     crystal axes: (cart. coord. in units of alat)
               a(1) = (  1.0000  0.0000  0.0000 )  
               a(2) = ( -0.5000  0.8660  0.0000 )  
               a(3) = (  0.0000  0.0000  1.1430 )  

     reciprocal axes: (cart. coord. in units 2 pi/alat)
               b(1) = (  1.0000  0.5774 -0.0000 )  
               b(2) = (  0.0000  1.1547  0.0000 )  
               b(3) = (  0.0000 -0.0000  0.8749 )  


     Atoms inside the unit cell: 

     Cartesian axes

     site n.  atom      mass           positions (alat units)
        1     Mg  24.3050   tau(    1) = (    0.00000    0.00000    0.00000  )
        2     B   10.8110   tau(    2) = (   -0.00000    0.57735    0.57148  )
        3     B   10.8110   tau(    3) = (    0.50000    0.28867    0.57148  )

     Computing dynamical matrix for 
                    q = (   0.1250000  -0.3608440   0.1458197 )

     No symmetry!

     G cutoff =  204.9114  (  12183 G-vectors)     FFT grid: ( 30, 30, 36)
     number of k points=  6144

     PseudoPot. # 1 for B  read from file:
     ./B.pbe-nc.UPF
     MD5 check sum: 75cd07c0a87b9b912465967514cf4679
     Pseudo is Norm-conserving, Zval =  3.0
     Generated using "atomic" code by A. Dal Corso v.5.0.99 svn rev. 10869
     Using radial grid of 1059 points,  1 beta functions with: 
                l(1) =   1

     PseudoPot. # 2 for Mg read from file:
     ./Mg.pbe-n-nc.UPF
     MD5 check sum: fdc482938bc77a1b5407024e0eeca3bc
     Pseudo is Norm-conserving + core correction, Zval =  2.0
     Generated using "atomic" code by A. Dal Corso v.5.0.99 svn rev. 10869
     Using radial grid of 1129 points,  2 beta functions with: 
                l(1) =   0
                l(2) =   1


     Atomic displacements:
     There are   9 irreducible representations

     Representation     1      1 modes -  To be done

     Representation     2      1 modes -  To be done

     Representation     3      1 modes -  To be done

     Representation     4      1 modes -  To be done

     Representation     5      1 modes -  To be done

     Representation     6      1 modes -  To be done

     Representation     7      1 modes -  To be done

     Representation     8      1 modes -  To be done

     Representation     9      1 modes -  To be done


     PHONON       :   3m38.53s CPU   4m 2.58s WALL

     Reading dVscf from file dv
     Reading dynamics matrix from file matdyn5

     [elph_tetra]   Lowest band which contains FS :          3
     [elph_tetra]  Highest band which contains FS :          5
     [elph_tetra]    # of bands which contains FS :          3

     Tetrahedron method
     DOS =  4.748627 states/spin/Ry/Unit Cell at Ef=  7.690239 eV
     double delta at Ef = 31.331827
     lambda(    1)=  0.0359   gamma=    7.98 GHz
     lambda(    2)=  0.0092   gamma=    2.17 GHz
     lambda(    3)=  0.0297   gamma=   10.90 GHz
     lambda(    4)=  0.1517   gamma=   96.89 GHz
     lambda(    5)=  0.0051   gamma=    4.59 GHz
     lambda(    6)=  0.0078   gamma=   10.80 GHz
     lambda(    7)=  0.0191   gamma=   29.78 GHz
     lambda(    8)=  0.0324   gamma=   73.88 GHz
     lambda(    9)=  0.0136   gamma=   36.25 GHz

     Number of q in the star =   24
     List of q in the star:
          1   0.125000000  -0.360843969   0.145819693
          2   0.125000000  -0.360843969  -0.145819693
          3  -0.375000000  -0.072168794   0.145819693
          4  -0.375000000  -0.072168794  -0.145819693
          5   0.375000000  -0.072168794   0.145819693
          6  -0.250000000  -0.288675175   0.145819693
          7   0.250000000   0.288675175   0.145819693
          8  -0.375000000   0.072168794   0.145819693
          9   0.375000000   0.072168794  -0.145819693
         10  -0.250000000   0.288675175  -0.145819693
         11   0.250000000  -0.288675175  -0.145819693
         12  -0.125000000  -0.360843969  -0.145819693
         13  -0.125000000   0.360843969  -0.145819693
         14   0.125000000   0.360843969  -0.145819693
         15   0.125000000   0.360843969   0.145819693
         16  -0.125000000  -0.360843969   0.145819693
         17  -0.375000000   0.072168794  -0.145819693
         18   0.250000000   0.288675175  -0.145819693
         19  -0.250000000  -0.288675175  -0.145819693
         20   0.375000000  -0.072168794  -0.145819693
         21  -0.125000000   0.360843969   0.145819693
         22   0.250000000  -0.288675175   0.145819693
         23  -0.250000000   0.288675175   0.145819693
         24   0.375000000   0.072168794   0.145819693

     Calculation of q =    0.1250000  -0.3608440  -0.4374591
     [opt_tetra]  Optimized tetrahedron method is used.

     G-vector sticks info
     --------------------
     sticks:   dense  smooth     PW     G-vecs:    dense   smooth      PW
     Sum         559     559    199                12183    12183    2545


     Title: 
     Electron-phonon                                                            


     bravais-lattice index     =            0
     lattice parameter (alat)  =       5.8057  a.u.
     unit-cell volume          =     193.7024 (a.u.)^3
     number of atoms/cell      =            3
     number of atomic types    =            2
     number of electrons       =         8.00
     number of Kohn-Sham states=            8
     kinetic-energy cutoff     =      60.0000  Ry
     charge density cutoff     =     240.0000  Ry
     Exchange-correlation= PBE
                           (   1   4   3   4   0   0   0)

     celldm(1)=   5.805736  celldm(2)=   0.000000  celldm(3)=   0.000000
     celldm(4)=   0.000000  celldm(5)=   0.000000  celldm(6)=   0.000000

     crystal axes: (cart. coord. in units of alat)
               a(1) = (   1.000000   0.000000   0.000000 )  
               a(2) = (  -0.500000   0.866025   0.000000 )  
               a(3) = (   0.000000   0.000000   1.142964 )  

     reciprocal axes: (cart. coord. in units 2 pi/alat)
               b(1) = (  1.000000  0.577350 -0.000000 )  
               b(2) = (  0.000000  1.154701  0.000000 )  
               b(3) = (  0.000000 -0.000000  0.874918 )  


     PseudoPot. # 1 for B  read from file:
     ./B.pbe-nc.UPF
     MD5 check sum: 75cd07c0a87b9b912465967514cf4679
     Pseudo is Norm-conserving, Zval =  3.0
     Generated using "atomic" code by A. Dal Corso v.5.0.99 svn rev. 10869
     Using radial grid of 1059 points,  1 beta functions with: 
                l(1) =   1

     PseudoPot. # 2 for Mg read from file:
     ./Mg.pbe-n-nc.UPF
     MD5 check sum: fdc482938bc77a1b5407024e0eeca3bc
     Pseudo is Norm-conserving + core correction, Zval =  2.0
     Generated using "atomic" code by A. Dal Corso v.5.0.99 svn rev. 10869
     Using radial grid of 1129 points,  2 beta functions with: 
                l(1) =   0
                l(2) =   1

     atomic species   valence    mass     pseudopotential
        B              3.00    10.81100     B ( 1.00)
        Mg             2.00    24.30500     Mg( 1.00)

     24 Sym. Ops., with inversion, found



   Cartesian axes

     site n.     atom                  positions (alat units)
         1           Mg  tau(   1) = (   0.0000000   0.0000000   0.0000000  )
         2           B   tau(   2) = (  -0.0000005   0.5773505   0.5714820  )
         3           B   tau(   3) = (   0.5000005   0.2886748   0.5714820  )

     number of k points=  3584 (tetrahedron method)

     Number of k-points >= 100: set verbosity='high' to print them.

     Dense  grid:    12183 G-vectors     FFT dimensions: (  30,  30,  36)

     Estimated max dynamical RAM per process >       6.46 MB

     Estimated total dynamical RAM >     206.61 MB

     The potential is recalculated from file :
     ./_ph0/pwscf.q_6/pwscf.save/charge-density

     Starting wfcs are   12 atomic wfcs

     Band Structure Calculation
     Davidson diagonalization with overlap

     ethr =  1.25E-10,  avg # of iterations = 18.7

     total cpu time spent up to now is      227.3 secs

     End of band structure calculation

     Number of k-points >= 100: set verbosity='high' to print the bands.

     the Fermi energy is     7.6902 ev

     Writing output data file ./_ph0/pwscf.q_6/pwscf.save/
 
     [dfpt_tetra]  Dos(E_F)[/Ry] :   0.9497254E+01

     Electron-phonon                                                            

     bravais-lattice index     =            0
     lattice parameter (alat)  =       5.8057  a.u.
     unit-cell volume          =     193.7024 (a.u.)^3
     number of atoms/cell      =            3
     number of atomic types    =            2
     kinetic-energy cut-off    =      60.0000  Ry
     charge density cut-off    =     240.0000  Ry
     convergence threshold     =      1.0E-12
     beta                      =       0.7000
     number of iterations used =            4
     Exchange-correlation= PBE
                           (   1   4   3   4   0   0   0)


     celldm(1)=    5.80574  celldm(2)=    0.00000  celldm(3)=    0.00000
     celldm(4)=    0.00000  celldm(5)=    0.00000  celldm(6)=    0.00000

     crystal axes: (cart. coord. in units of alat)
               a(1) = (  1.0000  0.0000  0.0000 )  
               a(2) = ( -0.5000  0.8660  0.0000 )  
               a(3) = (  0.0000  0.0000  1.1430 )  

     reciprocal axes: (cart. coord. in units 2 pi/alat)
               b(1) = (  1.0000  0.5774 -0.0000 )  
               b(2) = (  0.0000  1.1547  0.0000 )  
               b(3) = (  0.0000 -0.0000  0.8749 )  


     Atoms inside the unit cell: 

     Cartesian axes

     site n.  atom      mass           positions (alat units)
        1     Mg  24.3050   tau(    1) = (    0.00000    0.00000    0.00000  )
        2     B   10.8110   tau(    2) = (   -0.00000    0.57735    0.57148  )
        3     B   10.8110   tau(    3) = (    0.50000    0.28867    0.57148  )

     Computing dynamical matrix for 
                    q = (   0.1250000  -0.3608440  -0.4374591 )

      2 Sym.Ops. (no q -> -q+G )


     G cutoff =  204.9114  (  12183 G-vectors)     FFT grid: ( 30, 30, 36)
     number of k points=  3584

     PseudoPot. # 1 for B  read from file:
     ./B.pbe-nc.UPF
     MD5 check sum: 75cd07c0a87b9b912465967514cf4679
     Pseudo is Norm-conserving, Zval =  3.0
     Generated using "atomic" code by A. Dal Corso v.5.0.99 svn rev. 10869
     Using radial grid of 1059 points,  1 beta functions with: 
                l(1) =   1

     PseudoPot. # 2 for Mg read from file:
     ./Mg.pbe-n-nc.UPF
     MD5 check sum: fdc482938bc77a1b5407024e0eeca3bc
     Pseudo is Norm-conserving + core correction, Zval =  2.0
     Generated using "atomic" code by A. Dal Corso v.5.0.99 svn rev. 10869
     Using radial grid of 1129 points,  2 beta functions with: 
                l(1) =   0
                l(2) =   1


     Atomic displacements:
     There are   9 irreducible representations

     Representation     1      1 modes -  To be done

     Representation     2      1 modes -  To be done

     Representation     3      1 modes -  To be done

     Representation     4      1 modes -  To be done

     Representation     5      1 modes -  To be done

     Representation     6      1 modes -  To be done

     Representation     7      1 modes -  To be done

     Representation     8      1 modes -  To be done

     Representation     9      1 modes -  To be done


     PHONON       :   4m25.61s CPU   4m53.21s WALL

     Reading dVscf from file dv
     Reading dynamics matrix from file matdyn6

     [elph_tetra]   Lowest band which contains FS :          3
     [elph_tetra]  Highest band which contains FS :          5
     [elph_tetra]    # of bands which contains FS :          3

     Tetrahedron method
     DOS =  4.748627 states/spin/Ry/Unit Cell at Ef=  7.690239 eV
     double delta at Ef = 27.990209
     lambda(    1)=  0.0068   gamma=    1.80 GHz
     lambda(    2)=  0.0047   gamma=    1.47 GHz
     lambda(    3)=  0.0089   gamma=    2.77 GHz
     lambda(    4)=  0.0189   gamma=   14.82 GHz
     lambda(    5)=  0.0052   gamma=    4.51 GHz
     lambda(    6)=  0.0045   gamma=    6.43 GHz
     lambda(    7)=  0.0225   gamma=   33.57 GHz
     lambda(    8)=  0.0585   gamma=  129.60 GHz
     lambda(    9)=  0.0014   gamma=    3.84 GHz

     Number of q in the star =   12
     List of q in the star:
          1   0.125000000  -0.360843969  -0.437459078
          2  -0.375000000  -0.072168794  -0.437459078
          3   0.375000000  -0.072168794  -0.437459078
          4  -0.250000000  -0.288675175  -0.437459078
          5   0.250000000   0.288675175  -0.437459078
          6  -0.375000000   0.072168794  -0.437459078
          7   0.375000000   0.072168794   0.437459078
          8  -0.250000000   0.288675175   0.437459078
          9   0.250000000  -0.288675175   0.437459078
         10  -0.125000000  -0.360843969   0.437459078
         11  -0.125000000   0.360843969   0.437459078
         12   0.125000000   0.360843969   0.437459078

     Calculation of q =    0.1250000  -0.0721688   0.1458197
     [opt_tetra]  Optimized tetrahedron method is used.

     G-vector sticks info
     --------------------
     sticks:   dense  smooth     PW     G-vecs:    dense   smooth      PW
     Sum         559     559    169                12183    12183    2167


     Title: 
     Electron-phonon                                                            


     bravais-lattice index     =            0
     lattice parameter (alat)  =       5.8057  a.u.
     unit-cell volume          =     193.7024 (a.u.)^3
     number of atoms/cell      =            3
     number of atomic types    =            2
     number of electrons       =         8.00
     number of Kohn-Sham states=            8
     kinetic-energy cutoff     =      60.0000  Ry
     charge density cutoff     =     240.0000  Ry
     Exchange-correlation= PBE
                           (   1   4   3   4   0   0   0)

     celldm(1)=   5.805736  celldm(2)=   0.000000  celldm(3)=   0.000000
     celldm(4)=   0.000000  celldm(5)=   0.000000  celldm(6)=   0.000000

     crystal axes: (cart. coord. in units of alat)
               a(1) = (   1.000000   0.000000   0.000000 )  
               a(2) = (  -0.500000   0.866025   0.000000 )  
               a(3) = (   0.000000   0.000000   1.142964 )  

     reciprocal axes: (cart. coord. in units 2 pi/alat)
               b(1) = (  1.000000  0.577350 -0.000000 )  
               b(2) = (  0.000000  1.154701  0.000000 )  
               b(3) = (  0.000000 -0.000000  0.874918 )  


     PseudoPot. # 1 for B  read from file:
     ./B.pbe-nc.UPF
     MD5 check sum: 75cd07c0a87b9b912465967514cf4679
     Pseudo is Norm-conserving, Zval =  3.0
     Generated using "atomic" code by A. Dal Corso v.5.0.99 svn rev. 10869
     Using radial grid of 1059 points,  1 beta functions with: 
                l(1) =   1

     PseudoPot. # 2 for Mg read from file:
     ./Mg.pbe-n-nc.UPF
     MD5 check sum: fdc482938bc77a1b5407024e0eeca3bc
     Pseudo is Norm-conserving + core correction, Zval =  2.0
     Generated using "atomic" code by A. Dal Corso v.5.0.99 svn rev. 10869
     Using radial grid of 1129 points,  2 beta functions with: 
                l(1) =   0
                l(2) =   1

     atomic species   valence    mass     pseudopotential
        B              3.00    10.81100     B ( 1.00)
        Mg             2.00    24.30500     Mg( 1.00)

     24 Sym. Ops., with inversion, found



   Cartesian axes

     site n.     atom                  positions (alat units)
         1           Mg  tau(   1) = (   0.0000000   0.0000000   0.0000000  )
         2           B   tau(   2) = (  -0.0000005   0.5773505   0.5714820  )
         3           B   tau(   3) = (   0.5000005   0.2886748   0.5714820  )

     number of k points=  3264 (tetrahedron method)

     Number of k-points >= 100: set verbosity='high' to print them.

     Dense  grid:    12183 G-vectors     FFT dimensions: (  30,  30,  36)

     Estimated max dynamical RAM per process >       6.45 MB

     Estimated total dynamical RAM >     206.44 MB

     The potential is recalculated from file :
     ./_ph0/pwscf.q_7/pwscf.save/charge-density

     Starting wfcs are   12 atomic wfcs

     Band Structure Calculation
     Davidson diagonalization with overlap

     ethr =  1.25E-10,  avg # of iterations = 18.9

     total cpu time spent up to now is      257.8 secs

     End of band structure calculation

     Number of k-points >= 100: set verbosity='high' to print the bands.

     the Fermi energy is     7.6902 ev

     Writing output data file ./_ph0/pwscf.q_7/pwscf.save/
 
     [dfpt_tetra]  Dos(E_F)[/Ry] :   0.9497255E+01

     Electron-phonon                                                            

     bravais-lattice index     =            0
     lattice parameter (alat)  =       5.8057  a.u.
     unit-cell volume          =     193.7024 (a.u.)^3
     number of atoms/cell      =            3
     number of atomic types    =            2
     kinetic-energy cut-off    =      60.0000  Ry
     charge density cut-off    =     240.0000  Ry
     convergence threshold     =      1.0E-12
     beta                      =       0.7000
     number of iterations used =            4
     Exchange-correlation= PBE
                           (   1   4   3   4   0   0   0)


     celldm(1)=    5.80574  celldm(2)=    0.00000  celldm(3)=    0.00000
     celldm(4)=    0.00000  celldm(5)=    0.00000  celldm(6)=    0.00000

     crystal axes: (cart. coord. in units of alat)
               a(1) = (  1.0000  0.0000  0.0000 )  
               a(2) = ( -0.5000  0.8660  0.0000 )  
               a(3) = (  0.0000  0.0000  1.1430 )  

     reciprocal axes: (cart. coord. in units 2 pi/alat)
               b(1) = (  1.0000  0.5774 -0.0000 )  
               b(2) = (  0.0000  1.1547  0.0000 )  
               b(3) = (  0.0000 -0.0000  0.8749 )  


     Atoms inside the unit cell: 

     Cartesian axes

     site n.  atom      mass           positions (alat units)
        1     Mg  24.3050   tau(    1) = (    0.00000    0.00000    0.00000  )
        2     B   10.8110   tau(    2) = (   -0.00000    0.57735    0.57148  )
        3     B   10.8110   tau(    3) = (    0.50000    0.28867    0.57148  )

     Computing dynamical matrix for 
                    q = (   0.1250000  -0.0721688   0.1458197 )

      2 Sym.Ops. (no q -> -q+G )


     G cutoff =  204.9114  (  12183 G-vectors)     FFT grid: ( 30, 30, 36)
     number of k points=  3264

     PseudoPot. # 1 for B  read from file:
     ./B.pbe-nc.UPF
     MD5 check sum: 75cd07c0a87b9b912465967514cf4679
     Pseudo is Norm-conserving, Zval =  3.0
     Generated using "atomic" code by A. Dal Corso v.5.0.99 svn rev. 10869
     Using radial grid of 1059 points,  1 beta functions with: 
                l(1) =   1

     PseudoPot. # 2 for Mg read from file:
     ./Mg.pbe-n-nc.UPF
     MD5 check sum: fdc482938bc77a1b5407024e0eeca3bc
     Pseudo is Norm-conserving + core correction, Zval =  2.0
     Generated using "atomic" code by A. Dal Corso v.5.0.99 svn rev. 10869
     Using radial grid of 1129 points,  2 beta functions with: 
                l(1) =   0
                l(2) =   1


     Atomic displacements:
     There are   9 irreducible representations

     Representation     1      1 modes -  To be done

     Representation     2      1 modes -  To be done

     Representation     3      1 modes -  To be done

     Representation     4      1 modes -  To be done

     Representation     5      1 modes -  To be done

     Representation     6      1 modes -  To be done

     Representation     7      1 modes -  To be done

     Representation     8      1 modes -  To be done

     Representation     9      1 modes -  To be done


     PHONON       :   5m 3.26s CPU   5m34.55s WALL

     Reading dVscf from file dv
     Reading dynamics matrix from file matdyn7

     [elph_tetra]   Lowest band which contains FS :          3
     [elph_tetra]  Highest band which contains FS :          5
     [elph_tetra]    # of bands which contains FS :          3

     Tetrahedron method
     DOS =  4.748627 states/spin/Ry/Unit Cell at Ef=  7.690239 eV
     double delta at Ef = 56.645410
     lambda(    1)=  0.0758   gamma=    6.23 GHz
     lambda(    2)=  0.0468   gamma=    4.74 GHz
     lambda(    3)=  0.0434   gamma=    7.81 GHz
     lambda(    4)=  0.0356   gamma=   16.07 GHz
     lambda(    5)=  0.1075   gamma=   59.16 GHz
     lambda(    6)=  0.0331   gamma=   22.00 GHz
     lambda(    7)=  0.9573   gamma= 1235.40 GHz
     lambda(    8)=  0.5157   gamma=  717.04 GHz
     lambda(    9)=  0.0107   gamma=   19.85 GHz

     Number of q in the star =   12
     List of q in the star:
          1   0.125000000  -0.072168794   0.145819693
          2  -0.125000000   0.072168794   0.145819693
          3  -0.125000000   0.072168794  -0.145819693
          4   0.125000000   0.072168794   0.145819693
          5  -0.000000000  -0.144337587   0.145819693
          6   0.000000000   0.144337587   0.145819693
          7  -0.125000000  -0.072168794   0.145819693
          8   0.125000000  -0.072168794  -0.145819693
          9  -0.000000000   0.144337587  -0.145819693
         10   0.000000000  -0.144337587  -0.145819693
         11  -0.125000000  -0.072168794  -0.145819693
         12   0.125000000   0.072168794  -0.145819693

     Calculation of q =    0.1250000  -0.0721688  -0.4374591
     [opt_tetra]  Optimized tetrahedron method is used.

     G-vector sticks info
     --------------------
     sticks:   dense  smooth     PW     G-vecs:    dense   smooth      PW
     Sum         559     559    187                12183    12183    2401


     Title: 
     Electron-phonon                                                            


     bravais-lattice index     =            0
     lattice parameter (alat)  =       5.8057  a.u.
     unit-cell volume          =     193.7024 (a.u.)^3
     number of atoms/cell      =            3
     number of atomic types    =            2
     number of electrons       =         8.00
     number of Kohn-Sham states=            8
     kinetic-energy cutoff     =      60.0000  Ry
     charge density cutoff     =     240.0000  Ry
     Exchange-correlation= PBE
                           (   1   4   3   4   0   0   0)

     celldm(1)=   5.805736  celldm(2)=   0.000000  celldm(3)=   0.000000
     celldm(4)=   0.000000  celldm(5)=   0.000000  celldm(6)=   0.000000

     crystal axes: (cart. coord. in units of alat)
               a(1) = (   1.000000   0.000000   0.000000 )  
               a(2) = (  -0.500000   0.866025   0.000000 )  
               a(3) = (   0.000000   0.000000   1.142964 )  

     reciprocal axes: (cart. coord. in units 2 pi/alat)
               b(1) = (  1.000000  0.577350 -0.000000 )  
               b(2) = (  0.000000  1.154701  0.000000 )  
               b(3) = (  0.000000 -0.000000  0.874918 )  


     PseudoPot. # 1 for B  read from file:
     ./B.pbe-nc.UPF
     MD5 check sum: 75cd07c0a87b9b912465967514cf4679
     Pseudo is Norm-conserving, Zval =  3.0
     Generated using "atomic" code by A. Dal Corso v.5.0.99 svn rev. 10869
     Using radial grid of 1059 points,  1 beta functions with: 
                l(1) =   1

     PseudoPot. # 2 for Mg read from file:
     ./Mg.pbe-n-nc.UPF
     MD5 check sum: fdc482938bc77a1b5407024e0eeca3bc
     Pseudo is Norm-conserving + core correction, Zval =  2.0
     Generated using "atomic" code by A. Dal Corso v.5.0.99 svn rev. 10869
     Using radial grid of 1129 points,  2 beta functions with: 
                l(1) =   0
                l(2) =   1

     atomic species   valence    mass     pseudopotential
        B              3.00    10.81100     B ( 1.00)
        Mg             2.00    24.30500     Mg( 1.00)

     24 Sym. Ops., with inversion, found



   Cartesian axes

     site n.     atom                  positions (alat units)
         1           Mg  tau(   1) = (   0.0000000   0.0000000   0.0000000  )
         2           B   tau(   2) = (  -0.0000005   0.5773505   0.5714820  )
         3           B   tau(   3) = (   0.5000005   0.2886748   0.5714820  )

     number of k points=  1904 (tetrahedron method)

     Number of k-points >= 100: set verbosity='high' to print them.

     Dense  grid:    12183 G-vectors     FFT dimensions: (  30,  30,  36)

     Estimated max dynamical RAM per process >       6.45 MB

     Estimated total dynamical RAM >     206.56 MB

     The potential is recalculated from file :
     ./_ph0/pwscf.q_8/pwscf.save/charge-density

     Starting wfcs are   12 atomic wfcs

     Band Structure Calculation
     Davidson diagonalization with overlap

     ethr =  1.25E-10,  avg # of iterations = 18.6

     total cpu time spent up to now is      276.8 secs

     End of band structure calculation

     Number of k-points >= 100: set verbosity='high' to print the bands.

     the Fermi energy is     7.6902 ev

     Writing output data file ./_ph0/pwscf.q_8/pwscf.save/
 
     [dfpt_tetra]  Dos(E_F)[/Ry] :   0.9497255E+01

     Electron-phonon                                                            

     bravais-lattice index     =            0
     lattice parameter (alat)  =       5.8057  a.u.
     unit-cell volume          =     193.7024 (a.u.)^3
     number of atoms/cell      =            3
     number of atomic types    =            2
     kinetic-energy cut-off    =      60.0000  Ry
     charge density cut-off    =     240.0000  Ry
     convergence threshold     =      1.0E-12
     beta                      =       0.7000
     number of iterations used =            4
     Exchange-correlation= PBE
                           (   1   4   3   4   0   0   0)


     celldm(1)=    5.80574  celldm(2)=    0.00000  celldm(3)=    0.00000
     celldm(4)=    0.00000  celldm(5)=    0.00000  celldm(6)=    0.00000

     crystal axes: (cart. coord. in units of alat)
               a(1) = (  1.0000  0.0000  0.0000 )  
               a(2) = ( -0.5000  0.8660  0.0000 )  
               a(3) = (  0.0000  0.0000  1.1430 )  

     reciprocal axes: (cart. coord. in units 2 pi/alat)
               b(1) = (  1.0000  0.5774 -0.0000 )  
               b(2) = (  0.0000  1.1547  0.0000 )  
               b(3) = (  0.0000 -0.0000  0.8749 )  


     Atoms inside the unit cell: 

     Cartesian axes

     site n.  atom      mass           positions (alat units)
        1     Mg  24.3050   tau(    1) = (    0.00000    0.00000    0.00000  )
        2     B   10.8110   tau(    2) = (   -0.00000    0.57735    0.57148  )
        3     B   10.8110   tau(    3) = (    0.50000    0.28867    0.57148  )

     Computing dynamical matrix for 
                    q = (   0.1250000  -0.0721688  -0.4374591 )

      4 Sym.Ops. (no q -> -q+G )


     G cutoff =  204.9114  (  12183 G-vectors)     FFT grid: ( 30, 30, 36)
     number of k points=  1904

     PseudoPot. # 1 for B  read from file:
     ./B.pbe-nc.UPF
     MD5 check sum: 75cd07c0a87b9b912465967514cf4679
     Pseudo is Norm-conserving, Zval =  3.0
     Generated using "atomic" code by A. Dal Corso v.5.0.99 svn rev. 10869
     Using radial grid of 1059 points,  1 beta functions with: 
                l(1) =   1

     PseudoPot. # 2 for Mg read from file:
     ./Mg.pbe-n-nc.UPF
     MD5 check sum: fdc482938bc77a1b5407024e0eeca3bc
     Pseudo is Norm-conserving + core correction, Zval =  2.0
     Generated using "atomic" code by A. Dal Corso v.5.0.99 svn rev. 10869
     Using radial grid of 1129 points,  2 beta functions with: 
                l(1) =   0
                l(2) =   1


     Atomic displacements:
     There are   9 irreducible representations

     Representation     1      1 modes -  To be done

     Representation     2      1 modes -  To be done

     Representation     3      1 modes -  To be done

     Representation     4      1 modes -  To be done

     Representation     5      1 modes -  To be done

     Representation     6      1 modes -  To be done

     Representation     7      1 modes -  To be done

     Representation     8      1 modes -  To be done

     Representation     9      1 modes -  To be done


     PHONON       :   5m29.90s CPU   6m 3.26s WALL

     Reading dVscf from file dv
     Reading dynamics matrix from file matdyn8

     [elph_tetra]   Lowest band which contains FS :          3
     [elph_tetra]  Highest band which contains FS :          5
     [elph_tetra]    # of bands which contains FS :          3

     Tetrahedron method
     DOS =  4.748627 states/spin/Ry/Unit Cell at Ef=  7.690239 eV
     double delta at Ef = 58.155563
     lambda(    1)=  0.0008   gamma=    0.18 GHz
     lambda(    2)=  0.0010   gamma=    0.23 GHz
     lambda(    3)=  0.1583   gamma=   46.85 GHz
     lambda(    4)=  0.1008   gamma=   33.85 GHz
     lambda(    5)=  0.1228   gamma=   63.68 GHz
     lambda(    6)=  0.0053   gamma=    3.31 GHz
     lambda(    7)=  0.6228   gamma=  774.32 GHz
     lambda(    8)=  0.7464   gamma= 1024.09 GHz
     lambda(    9)=  0.0236   gamma=   38.70 GHz

     Number of q in the star =    6
     List of q in the star:
          1   0.125000000  -0.072168794  -0.437459078
          2   0.125000000   0.072168794  -0.437459078
          3  -0.000000000  -0.144337587  -0.437459078
          4   0.000000000   0.144337587  -0.437459078
          5  -0.125000000  -0.072168794  -0.437459078
          6  -0.125000000   0.072168794  -0.437459078

     Calculation of q =    0.3750000   0.6495191   0.1458197
     [opt_tetra]  Optimized tetrahedron method is used.

     G-vector sticks info
     --------------------
     sticks:   dense  smooth     PW     G-vecs:    dense   smooth      PW
     Sum         559     559    199                12183    12183    2653


     Title: 
     Electron-phonon                                                            


     bravais-lattice index     =            0
     lattice parameter (alat)  =       5.8057  a.u.
     unit-cell volume          =     193.7024 (a.u.)^3
     number of atoms/cell      =            3
     number of atomic types    =            2
     number of electrons       =         8.00
     number of Kohn-Sham states=            8
     kinetic-energy cutoff     =      60.0000  Ry
     charge density cutoff     =     240.0000  Ry
     Exchange-correlation= PBE
                           (   1   4   3   4   0   0   0)

     celldm(1)=   5.805736  celldm(2)=   0.000000  celldm(3)=   0.000000
     celldm(4)=   0.000000  celldm(5)=   0.000000  celldm(6)=   0.000000

     crystal axes: (cart. coord. in units of alat)
               a(1) = (   1.000000   0.000000   0.000000 )  
               a(2) = (  -0.500000   0.866025   0.000000 )  
               a(3) = (   0.000000   0.000000   1.142964 )  

     reciprocal axes: (cart. coord. in units 2 pi/alat)
               b(1) = (  1.000000  0.577350 -0.000000 )  
               b(2) = (  0.000000  1.154701  0.000000 )  
               b(3) = (  0.000000 -0.000000  0.874918 )  


     PseudoPot. # 1 for B  read from file:
     ./B.pbe-nc.UPF
     MD5 check sum: 75cd07c0a87b9b912465967514cf4679
     Pseudo is Norm-conserving, Zval =  3.0
     Generated using "atomic" code by A. Dal Corso v.5.0.99 svn rev. 10869
     Using radial grid of 1059 points,  1 beta functions with: 
                l(1) =   1

     PseudoPot. # 2 for Mg read from file:
     ./Mg.pbe-n-nc.UPF
     MD5 check sum: fdc482938bc77a1b5407024e0eeca3bc
     Pseudo is Norm-conserving + core correction, Zval =  2.0
     Generated using "atomic" code by A. Dal Corso v.5.0.99 svn rev. 10869
     Using radial grid of 1129 points,  2 beta functions with: 
                l(1) =   0
                l(2) =   1

     atomic species   valence    mass     pseudopotential
        B              3.00    10.81100     B ( 1.00)
        Mg             2.00    24.30500     Mg( 1.00)

     24 Sym. Ops., with inversion, found



   Cartesian axes

     site n.     atom                  positions (alat units)
         1           Mg  tau(   1) = (   0.0000000   0.0000000   0.0000000  )
         2           B   tau(   2) = (  -0.0000005   0.5773505   0.5714820  )
         3           B   tau(   3) = (   0.5000005   0.2886748   0.5714820  )

     number of k points=  3264 (tetrahedron method)

     Number of k-points >= 100: set verbosity='high' to print them.

     Dense  grid:    12183 G-vectors     FFT dimensions: (  30,  30,  36)

     Estimated max dynamical RAM per process >       6.46 MB

     Estimated total dynamical RAM >     206.69 MB

     The potential is recalculated from file :
     ./_ph0/pwscf.q_9/pwscf.save/charge-density

     Starting wfcs are   12 atomic wfcs

     Band Structure Calculation
     Davidson diagonalization with overlap

     ethr =  1.25E-10,  avg # of iterations = 18.9

     total cpu time spent up to now is      307.1 secs

     End of band structure calculation

     Number of k-points >= 100: set verbosity='high' to print the bands.

     the Fermi energy is     7.6902 ev

     Writing output data file ./_ph0/pwscf.q_9/pwscf.save/
 
     [dfpt_tetra]  Dos(E_F)[/Ry] :   0.9497254E+01

     Electron-phonon                                                            

     bravais-lattice index     =            0
     lattice parameter (alat)  =       5.8057  a.u.
     unit-cell volume          =     193.7024 (a.u.)^3
     number of atoms/cell      =            3
     number of atomic types    =            2
     kinetic-energy cut-off    =      60.0000  Ry
     charge density cut-off    =     240.0000  Ry
     convergence threshold     =      1.0E-12
     beta                      =       0.7000
     number of iterations used =            4
     Exchange-correlation= PBE
                           (   1   4   3   4   0   0   0)


     celldm(1)=    5.80574  celldm(2)=    0.00000  celldm(3)=    0.00000
     celldm(4)=    0.00000  celldm(5)=    0.00000  celldm(6)=    0.00000

     crystal axes: (cart. coord. in units of alat)
               a(1) = (  1.0000  0.0000  0.0000 )  
               a(2) = ( -0.5000  0.8660  0.0000 )  
               a(3) = (  0.0000  0.0000  1.1430 )  

     reciprocal axes: (cart. coord. in units 2 pi/alat)
               b(1) = (  1.0000  0.5774 -0.0000 )  
               b(2) = (  0.0000  1.1547  0.0000 )  
               b(3) = (  0.0000 -0.0000  0.8749 )  


     Atoms inside the unit cell: 

     Cartesian axes

     site n.  atom      mass           positions (alat units)
        1     Mg  24.3050   tau(    1) = (    0.00000    0.00000    0.00000  )
        2     B   10.8110   tau(    2) = (   -0.00000    0.57735    0.57148  )
        3     B   10.8110   tau(    3) = (    0.50000    0.28867    0.57148  )

     Computing dynamical matrix for 
                    q = (   0.3750000   0.6495191   0.1458197 )

      2 Sym.Ops. (no q -> -q+G )


     G cutoff =  204.9114  (  12183 G-vectors)     FFT grid: ( 30, 30, 36)
     number of k points=  3264

     PseudoPot. # 1 for B  read from file:
     ./B.pbe-nc.UPF
     MD5 check sum: 75cd07c0a87b9b912465967514cf4679
     Pseudo is Norm-conserving, Zval =  3.0
     Generated using "atomic" code by A. Dal Corso v.5.0.99 svn rev. 10869
     Using radial grid of 1059 points,  1 beta functions with: 
                l(1) =   1

     PseudoPot. # 2 for Mg read from file:
     ./Mg.pbe-n-nc.UPF
     MD5 check sum: fdc482938bc77a1b5407024e0eeca3bc
     Pseudo is Norm-conserving + core correction, Zval =  2.0
     Generated using "atomic" code by A. Dal Corso v.5.0.99 svn rev. 10869
     Using radial grid of 1129 points,  2 beta functions with: 
                l(1) =   0
                l(2) =   1


     Atomic displacements:
     There are   9 irreducible representations

     Representation     1      1 modes -  To be done

     Representation     2      1 modes -  To be done

     Representation     3      1 modes -  To be done

     Representation     4      1 modes -  To be done

     Representation     5      1 modes -  To be done

     Representation     6      1 modes -  To be done

     Representation     7      1 modes -  To be done

     Representation     8      1 modes -  To be done

     Representation     9      1 modes -  To be done


     PHONON       :   6m 4.13s CPU   6m40.11s WALL

     Reading dVscf from file dv
     Reading dynamics matrix from file matdyn9

     [elph_tetra]   Lowest band which contains FS :          3
     [elph_tetra]  Highest band which contains FS :          5
     [elph_tetra]    # of bands which contains FS :          3

     Tetrahedron method
     DOS =  4.748627 states/spin/Ry/Unit Cell at Ef=  7.690239 eV
     double delta at Ef = 62.242758
     lambda(    1)=  0.0159   gamma=    4.53 GHz
     lambda(    2)=  0.0157   gamma=    5.04 GHz
     lambda(    3)=  0.0201   gamma=    7.66 GHz
     lambda(    4)=  0.1869   gamma=  150.18 GHz
     lambda(    5)=  0.1971   gamma=  188.97 GHz
     lambda(    6)=  0.0042   gamma=    6.30 GHz
     lambda(    7)=  0.0095   gamma=   20.41 GHz
     lambda(    8)=  0.0050   gamma=   10.88 GHz
     lambda(    9)=  0.0351   gamma=   83.61 GHz

     Number of q in the star =   12
     List of q in the star:
          1   0.375000000   0.649519144   0.145819693
          2  -0.375000000  -0.649519144  -0.145819693
          3   0.375000000   0.649519144  -0.145819693
          4  -0.375000000   0.649519143   0.145819693
          5   0.750000000   0.000000000   0.145819693
          6  -0.750000000  -0.000000000   0.145819693
          7   0.375000000  -0.649519143   0.145819693
          8  -0.375000000  -0.649519144   0.145819693
          9   0.750000000   0.000000000  -0.145819693
         10  -0.750000000  -0.000000000  -0.145819693
         11  -0.375000000   0.649519143  -0.145819693
         12   0.375000000  -0.649519143  -0.145819693

     Calculation of q =    0.3750000   0.6495191  -0.4374591
     [opt_tetra]  Optimized tetrahedron method is used.

     G-vector sticks info
     --------------------
     sticks:   dense  smooth     PW     G-vecs:    dense   smooth      PW
     Sum         559     559    211                12183    12183    2835


     Title: 
     Electron-phonon                                                            


     bravais-lattice index     =            0
     lattice parameter (alat)  =       5.8057  a.u.
     unit-cell volume          =     193.7024 (a.u.)^3
     number of atoms/cell      =            3
     number of atomic types    =            2
     number of electrons       =         8.00
     number of Kohn-Sham states=            8
     kinetic-energy cutoff     =      60.0000  Ry
     charge density cutoff     =     240.0000  Ry
     Exchange-correlation= PBE
                           (   1   4   3   4   0   0   0)

     celldm(1)=   5.805736  celldm(2)=   0.000000  celldm(3)=   0.000000
     celldm(4)=   0.000000  celldm(5)=   0.000000  celldm(6)=   0.000000

     crystal axes: (cart. coord. in units of alat)
               a(1) = (   1.000000   0.000000   0.000000 )  
               a(2) = (  -0.500000   0.866025   0.000000 )  
               a(3) = (   0.000000   0.000000   1.142964 )  

     reciprocal axes: (cart. coord. in units 2 pi/alat)
               b(1) = (  1.000000  0.577350 -0.000000 )  
               b(2) = (  0.000000  1.154701  0.000000 )  
               b(3) = (  0.000000 -0.000000  0.874918 )  


     PseudoPot. # 1 for B  read from file:
     ./B.pbe-nc.UPF
     MD5 check sum: 75cd07c0a87b9b912465967514cf4679
[...]
     lambda(    9)=  0.0717   gamma=  162.73 GHz

     Number of q in the star =    6
     List of q in the star:
          1   0.375000000   0.649519144  -0.437459078
          2  -0.375000000   0.649519143  -0.437459078
          3   0.750000000   0.000000000  -0.437459078
          4  -0.750000000  -0.000000000  -0.437459078
          5   0.375000000  -0.649519143  -0.437459078
          6  -0.375000000  -0.649519144  -0.437459078

     Calculation of q =    0.3750000  -0.2165064   0.1458197
     [opt_tetra]  Optimized tetrahedron method is used.

     G-vector sticks info
     --------------------
     sticks:   dense  smooth     PW     G-vecs:    dense   smooth      PW
     Sum         559     559    187                12183    12183    2401


     Title: 
     Electron-phonon                                                            


     bravais-lattice index     =            0
     lattice parameter (alat)  =       5.8057  a.u.
     unit-cell volume          =     193.7024 (a.u.)^3
     number of atoms/cell      =            3
     number of atomic types    =            2
     number of electrons       =         8.00
     number of Kohn-Sham states=            8
     kinetic-energy cutoff     =      60.0000  Ry
     charge density cutoff     =     240.0000  Ry
     Exchange-correlation= PBE
                           (   1   4   3   4   0   0   0)

     celldm(1)=   5.805736  celldm(2)=   0.000000  celldm(3)=   0.000000
     celldm(4)=   0.000000  celldm(5)=   0.000000  celldm(6)=   0.000000

     crystal axes: (cart. coord. in units of alat)
               a(1) = (   1.000000   0.000000   0.000000 )  
               a(2) = (  -0.500000   0.866025   0.000000 )  
               a(3) = (   0.000000   0.000000   1.142964 )  

     reciprocal axes: (cart. coord. in units 2 pi/alat)
               b(1) = (  1.000000  0.577350 -0.000000 )  
               b(2) = (  0.000000  1.154701  0.000000 )  
               b(3) = (  0.000000 -0.000000  0.874918 )  


     PseudoPot. # 1 for B  read from file:
     ./B.pbe-nc.UPF
     MD5 check sum: 75cd07c0a87b9b912465967514cf4679
     Pseudo is Norm-conserving, Zval =  3.0
     Generated using "atomic" code by A. Dal Corso v.5.0.99 svn rev. 10869
     Using radial grid of 1059 points,  1 beta functions with: 
                l(1) =   1

     PseudoPot. # 2 for Mg read from file:
     ./Mg.pbe-n-nc.UPF
     MD5 check sum: fdc482938bc77a1b5407024e0eeca3bc
     Pseudo is Norm-conserving + core correction, Zval =  2.0
     Generated using "atomic" code by A. Dal Corso v.5.0.99 svn rev. 10869
     Using radial grid of 1129 points,  2 beta functions with: 
                l(1) =   0
                l(2) =   1

     atomic species   valence    mass     pseudopotential
        B              3.00    10.81100     B ( 1.00)
        Mg             2.00    24.30500     Mg( 1.00)

     24 Sym. Ops., with inversion, found



   Cartesian axes

     site n.     atom                  positions (alat units)
         1           Mg  tau(   1) = (   0.0000000   0.0000000   0.0000000  )
         2           B   tau(   2) = (  -0.0000005   0.5773505   0.5714820  )
         3           B   tau(   3) = (   0.5000005   0.2886748   0.5714820  )

     number of k points=  3264 (tetrahedron method)

     Number of k-points >= 100: set verbosity='high' to print them.

     Dense  grid:    12183 G-vectors     FFT dimensions: (  30,  30,  36)

     Estimated max dynamical RAM per process >       6.45 MB

     Estimated total dynamical RAM >     206.56 MB

     The potential is recalculated from file :
     ./_ph0/pwscf.q_11/pwscf.save/charge-density

     Starting wfcs are   12 atomic wfcs

     Band Structure Calculation
     Davidson diagonalization with overlap

     ethr =  1.25E-10,  avg # of iterations = 18.9

     total cpu time spent up to now is      356.6 secs

     End of band structure calculation

     Number of k-points >= 100: set verbosity='high' to print the bands.

     the Fermi energy is     7.6902 ev

     Writing output data file ./_ph0/pwscf.q_11/pwscf.save/
 
     [dfpt_tetra]  Dos(E_F)[/Ry] :   0.9497254E+01

     Electron-phonon                                                            

     bravais-lattice index     =            0
     lattice parameter (alat)  =       5.8057  a.u.
     unit-cell volume          =     193.7024 (a.u.)^3
     number of atoms/cell      =            3
     number of atomic types    =            2
     kinetic-energy cut-off    =      60.0000  Ry
     charge density cut-off    =     240.0000  Ry
     convergence threshold     =      1.0E-12
     beta                      =       0.7000
     number of iterations used =            4
     Exchange-correlation= PBE
                           (   1   4   3   4   0   0   0)


     celldm(1)=    5.80574  celldm(2)=    0.00000  celldm(3)=    0.00000
     celldm(4)=    0.00000  celldm(5)=    0.00000  celldm(6)=    0.00000

     crystal axes: (cart. coord. in units of alat)
               a(1) = (  1.0000  0.0000  0.0000 )  
               a(2) = ( -0.5000  0.8660  0.0000 )  
               a(3) = (  0.0000  0.0000  1.1430 )  

     reciprocal axes: (cart. coord. in units 2 pi/alat)
               b(1) = (  1.0000  0.5774 -0.0000 )  
               b(2) = (  0.0000  1.1547  0.0000 )  
               b(3) = (  0.0000 -0.0000  0.8749 )  


     Atoms inside the unit cell: 

     Cartesian axes

     site n.  atom      mass           positions (alat units)
        1     Mg  24.3050   tau(    1) = (    0.00000    0.00000    0.00000  )
        2     B   10.8110   tau(    2) = (   -0.00000    0.57735    0.57148  )
        3     B   10.8110   tau(    3) = (    0.50000    0.28867    0.57148  )

     Computing dynamical matrix for 
                    q = (   0.3750000  -0.2165064   0.1458197 )

      2 Sym.Ops. (no q -> -q+G )


     G cutoff =  204.9114  (  12183 G-vectors)     FFT grid: ( 30, 30, 36)
     number of k points=  3264

     PseudoPot. # 1 for B  read from file:
     ./B.pbe-nc.UPF
     MD5 check sum: 75cd07c0a87b9b912465967514cf4679
     Pseudo is Norm-conserving, Zval =  3.0
     Generated using "atomic" code by A. Dal Corso v.5.0.99 svn rev. 10869
     Using radial grid of 1059 points,  1 beta functions with: 
                l(1) =   1

     PseudoPot. # 2 for Mg read from file:
     ./Mg.pbe-n-nc.UPF
     MD5 check sum: fdc482938bc77a1b5407024e0eeca3bc
     Pseudo is Norm-conserving + core correction, Zval =  2.0
     Generated using "atomic" code by A. Dal Corso v.5.0.99 svn rev. 10869
     Using radial grid of 1129 points,  2 beta functions with: 
                l(1) =   0
                l(2) =   1


     Atomic displacements:
     There are   9 irreducible representations

     Representation     1      1 modes -  To be done

     Representation     2      1 modes -  To be done

     Representation     3      1 modes -  To be done

     Representation     4      1 modes -  To be done

     Representation     5      1 modes -  To be done

     Representation     6      1 modes -  To be done

     Representation     7      1 modes -  To be done

     Representation     8      1 modes -  To be done

     Representation     9      1 modes -  To be done


     PHONON       :   7m 5.83s CPU   7m46.80s WALL

     Reading dVscf from file dv
     Reading dynamics matrix from file matdyn11

     [elph_tetra]   Lowest band which contains FS :          3
     [elph_tetra]  Highest band which contains FS :          5
     [elph_tetra]    # of bands which contains FS :          3

     Tetrahedron method
     DOS =  4.748627 states/spin/Ry/Unit Cell at Ef=  7.690239 eV
     double delta at Ef = 31.444233
     lambda(    1)=  0.0038   gamma=    0.92 GHz
     lambda(    2)=  0.0108   gamma=    2.70 GHz
     lambda(    3)=  0.0139   gamma=    5.48 GHz
     lambda(    4)=  0.1307   gamma=   88.92 GHz
     lambda(    5)=  0.0005   gamma=    0.35 GHz
     lambda(    6)=  0.0484   gamma=   69.29 GHz
     lambda(    7)=  0.0059   gamma=   10.36 GHz
     lambda(    8)=  0.0264   gamma=   57.77 GHz
     lambda(    9)=  0.0093   gamma=   24.57 GHz

     Number of q in the star =   12
     List of q in the star:
          1   0.375000000  -0.216506381   0.145819693
          2   0.375000000  -0.216506381  -0.145819693
          3  -0.375000000   0.216506381  -0.145819693
          4   0.375000000   0.216506381   0.145819693
          5  -0.000000000  -0.433012762   0.145819693
          6   0.000000000   0.433012762   0.145819693
          7  -0.375000000  -0.216506381   0.145819693
          8  -0.375000000   0.216506381   0.145819693
          9  -0.000000000   0.433012762  -0.145819693
         10   0.000000000  -0.433012762  -0.145819693
         11  -0.375000000  -0.216506381  -0.145819693
         12   0.375000000   0.216506381  -0.145819693

     Calculation of q =    0.3750000  -0.2165064  -0.4374591
     [opt_tetra]  Optimized tetrahedron method is used.

     G-vector sticks info
     --------------------
     sticks:   dense  smooth     PW     G-vecs:    dense   smooth      PW
     Sum         559     559    199                12183    12183    2581


     Title: 
     Electron-phonon                                                            


     bravais-lattice index     =            0
     lattice parameter (alat)  =       5.8057  a.u.
     unit-cell volume          =     193.7024 (a.u.)^3
     number of atoms/cell      =            3
     number of atomic types    =            2
     number of electrons       =         8.00
     number of Kohn-Sham states=            8
     kinetic-energy cutoff     =      60.0000  Ry
     charge density cutoff     =     240.0000  Ry
     Exchange-correlation= PBE
                           (   1   4   3   4   0   0   0)

     celldm(1)=   5.805736  celldm(2)=   0.000000  celldm(3)=   0.000000
     celldm(4)=   0.000000  celldm(5)=   0.000000  celldm(6)=   0.000000

     crystal axes: (cart. coord. in units of alat)
               a(1) = (   1.000000   0.000000   0.000000 )  
               a(2) = (  -0.500000   0.866025   0.000000 )  
               a(3) = (   0.000000   0.000000   1.142964 )  

     reciprocal axes: (cart. coord. in units 2 pi/alat)
               b(1) = (  1.000000  0.577350 -0.000000 )  
               b(2) = (  0.000000  1.154701  0.000000 )  
               b(3) = (  0.000000 -0.000000  0.874918 )  


     PseudoPot. # 1 for B  read from file:
     ./B.pbe-nc.UPF
     MD5 check sum: 75cd07c0a87b9b912465967514cf4679
     Pseudo is Norm-conserving, Zval =  3.0
     Generated using "atomic" code by A. Dal Corso v.5.0.99 svn rev. 10869
     Using radial grid of 1059 points,  1 beta functions with: 
                l(1) =   1

     PseudoPot. # 2 for Mg read from file:
     ./Mg.pbe-n-nc.UPF
     MD5 check sum: fdc482938bc77a1b5407024e0eeca3bc
     Pseudo is Norm-conserving + core correction, Zval =  2.0
     Generated using "atomic" code by A. Dal Corso v.5.0.99 svn rev. 10869
     Using radial grid of 1129 points,  2 beta functions with: 
                l(1) =   0
                l(2) =   1

     atomic species   valence    mass     pseudopotential
        B              3.00    10.81100     B ( 1.00)
        Mg             2.00    24.30500     Mg( 1.00)

     24 Sym. Ops., with inversion, found



   Cartesian axes

     site n.     atom                  positions (alat units)
         1           Mg  tau(   1) = (   0.0000000   0.0000000   0.0000000  )
         2           B   tau(   2) = (  -0.0000005   0.5773505   0.5714820  )
         3           B   tau(   3) = (   0.5000005   0.2886748   0.5714820  )

     number of k points=  1904 (tetrahedron method)

     Number of k-points >= 100: set verbosity='high' to print them.

     Dense  grid:    12183 G-vectors     FFT dimensions: (  30,  30,  36)

     Estimated max dynamical RAM per process >       6.46 MB

     Estimated total dynamical RAM >     206.63 MB

     The potential is recalculated from file :
     ./_ph0/pwscf.q_12/pwscf.save/charge-density

     Starting wfcs are   12 atomic wfcs

     Band Structure Calculation
     Davidson diagonalization with overlap

     ethr =  1.25E-10,  avg # of iterations = 18.6

     total cpu time spent up to now is      375.7 secs

     End of band structure calculation

     Number of k-points >= 100: set verbosity='high' to print the bands.

     the Fermi energy is     7.6902 ev

     Writing output data file ./_ph0/pwscf.q_12/pwscf.save/
 
     [dfpt_tetra]  Dos(E_F)[/Ry] :   0.9497255E+01

     Electron-phonon                                                            

     bravais-lattice index     =            0
     lattice parameter (alat)  =       5.8057  a.u.
     unit-cell volume          =     193.7024 (a.u.)^3
     number of atoms/cell      =            3
     number of atomic types    =            2
     kinetic-energy cut-off    =      60.0000  Ry
     charge density cut-off    =     240.0000  Ry
     convergence threshold     =      1.0E-12
     beta                      =       0.7000
     number of iterations used =            4
     Exchange-correlation= PBE
                           (   1   4   3   4   0   0   0)


     celldm(1)=    5.80574  celldm(2)=    0.00000  celldm(3)=    0.00000
     celldm(4)=    0.00000  celldm(5)=    0.00000  celldm(6)=    0.00000

     crystal axes: (cart. coord. in units of alat)
               a(1) = (  1.0000  0.0000  0.0000 )  
               a(2) = ( -0.5000  0.8660  0.0000 )  
               a(3) = (  0.0000  0.0000  1.1430 )  

     reciprocal axes: (cart. coord. in units 2 pi/alat)
               b(1) = (  1.0000  0.5774 -0.0000 )  
               b(2) = (  0.0000  1.1547  0.0000 )  
               b(3) = (  0.0000 -0.0000  0.8749 )  


     Atoms inside the unit cell: 

     Cartesian axes

     site n.  atom      mass           positions (alat units)
        1     Mg  24.3050   tau(    1) = (    0.00000    0.00000    0.00000  )
        2     B   10.8110   tau(    2) = (   -0.00000    0.57735    0.57148  )
        3     B   10.8110   tau(    3) = (    0.50000    0.28867    0.57148  )

     Computing dynamical matrix for 
                    q = (   0.3750000  -0.2165064  -0.4374591 )

      4 Sym.Ops. (no q -> -q+G )


     G cutoff =  204.9114  (  12183 G-vectors)     FFT grid: ( 30, 30, 36)
     number of k points=  1904

     PseudoPot. # 1 for B  read from file:
     ./B.pbe-nc.UPF
     MD5 check sum: 75cd07c0a87b9b912465967514cf4679
     Pseudo is Norm-conserving, Zval =  3.0
     Generated using "atomic" code by A. Dal Corso v.5.0.99 svn rev. 10869
     Using radial grid of 1059 points,  1 beta functions with: 
                l(1) =   1

     PseudoPot. # 2 for Mg read from file:
     ./Mg.pbe-n-nc.UPF
     MD5 check sum: fdc482938bc77a1b5407024e0eeca3bc
     Pseudo is Norm-conserving + core correction, Zval =  2.0
     Generated using "atomic" code by A. Dal Corso v.5.0.99 svn rev. 10869
     Using radial grid of 1129 points,  2 beta functions with: 
                l(1) =   0
                l(2) =   1


     Atomic displacements:
     There are   9 irreducible representations

     Representation     1      1 modes -  To be done

     Representation     2      1 modes -  To be done

     Representation     3      1 modes -  To be done

     Representation     4      1 modes -  To be done

     Representation     5      1 modes -  To be done

     Representation     6      1 modes -  To be done

     Representation     7      1 modes -  To be done

     Representation     8      1 modes -  To be done

     Representation     9      1 modes -  To be done


     PHONON       :   7m33.06s CPU   8m15.65s WALL

     Reading dVscf from file dv
     Reading dynamics matrix from file matdyn12

     [elph_tetra]   Lowest band which contains FS :          3
     [elph_tetra]  Highest band which contains FS :          5
     [elph_tetra]    # of bands which contains FS :          3

     Tetrahedron method
     DOS =  4.748627 states/spin/Ry/Unit Cell at Ef=  7.690239 eV
     double delta at Ef = 43.466210
     lambda(    1)=  0.0151   gamma=    3.91 GHz
     lambda(    2)=  0.0063   gamma=    1.91 GHz
     lambda(    3)=  0.0236   gamma=    8.02 GHz
     lambda(    4)=  0.0049   gamma=    3.79 GHz
     lambda(    5)=  0.1301   gamma=  107.73 GHz
     lambda(    6)=  0.0564   gamma=   79.47 GHz
     lambda(    7)=  0.0050   gamma=    9.02 GHz
     lambda(    8)=  0.0523   gamma=  117.25 GHz
     lambda(    9)=  0.0038   gamma=   10.18 GHz

     Number of q in the star =    6
     List of q in the star:
          1   0.375000000  -0.216506381  -0.437459078
          2   0.375000000   0.216506381  -0.437459078
          3  -0.000000000  -0.433012762  -0.437459078
          4   0.000000000   0.433012762  -0.437459078
          5  -0.375000000  -0.216506381  -0.437459078
          6  -0.375000000   0.216506381  -0.437459078

     init_run     :      5.75s CPU      6.51s WALL (      12 calls)
     electrons    :    311.04s CPU    349.44s WALL (      12 calls)

     Called by init_run:
     wfcinit      :      0.00s CPU      0.00s WALL (      12 calls)
     potinit      :      0.50s CPU      0.62s WALL (      12 calls)
     hinit0       :      4.51s CPU      4.52s WALL (      12 calls)

     Called by electrons:
     c_bands      :    298.44s CPU    336.73s WALL (      12 calls)
     v_of_rho     :      0.38s CPU      0.41s WALL (      13 calls)

     Called by c_bands:
     init_us_2    :      2.99s CPU      3.09s WALL (    7536 calls)
     cegterg      :    239.27s CPU    240.74s WALL (    1641 calls)

     Called by sum_band:

     Called by *egterg:
     h_psi        :    205.93s CPU    207.75s WALL (   26229 calls)
     g_psi        :      1.10s CPU      1.11s WALL (   23332 calls)
     cdiaghg      :      5.45s CPU      5.50s WALL (   24588 calls)

     Called by h_psi:
     h_psi:calbec :      6.32s CPU      6.37s WALL (   26229 calls)
     vloc_psi     :    193.12s CPU    194.84s WALL (   26229 calls)
     add_vuspsi   :      5.90s CPU      5.92s WALL (   26229 calls)

     General routines
     calbec       :      7.11s CPU      7.18s WALL (   28741 calls)
     fft          :      0.17s CPU      0.18s WALL (     179 calls)
     ffts         :      5.81s CPU      5.99s WALL (    5652 calls)
     fftw         :    264.21s CPU    266.46s WALL (  398050 calls)
     davcio       :      0.76s CPU      1.64s WALL (   13926 calls)

     Parallel routines

     PHONON       :   7m38.15s CPU   8m20.81s WALL

     INITIALIZATION: 
     phq_setup    :      1.74s CPU      2.19s WALL (      12 calls)
     phq_init     :     11.93s CPU     12.03s WALL (      12 calls)

     phq_init     :     11.93s CPU     12.03s WALL (      12 calls)
     set_drhoc    :      3.65s CPU      3.72s WALL (      12 calls)
     init_vloc    :      1.90s CPU      1.90s WALL (      13 calls)
     init_us_1    :      0.77s CPU      0.77s WALL (      13 calls)




     dvqpsi_us    :     76.76s CPU     77.54s WALL (    5652 calls)

     dvqpsi_us    :     76.76s CPU     77.54s WALL (    5652 calls)
     dvqpsi_us_on :      4.43s CPU      4.44s WALL (    5652 calls)


     h_psi        :    205.93s CPU    207.75s WALL (   26229 calls)

     h_psi        :    205.93s CPU    207.75s WALL (   26229 calls)
     add_vuspsi   :      5.90s CPU      5.92s WALL (   26229 calls)



      General routines
     calbec       :      7.11s CPU      7.18s WALL (   28741 calls)
     fft          :      0.17s CPU      0.18s WALL (     179 calls)
     ffts         :      5.81s CPU      5.99s WALL (    5652 calls)
     fftw         :    264.21s CPU    266.46s WALL (  398050 calls)
     davcio       :      0.76s CPU      1.64s WALL (   13926 calls)


     PHONON       :   7m38.15s CPU   8m20.81s WALL


   This run was terminated on:   2:25:25  23Nov2019            

=------------------------------------------------------------------------------=
   JOB DONE.
=------------------------------------------------------------------------------=
