
     Program PWSCF v.6.4.1 starts on 23Nov2019 at  2:36:38 

     This program is part of the open-source Quantum ESPRESSO suite
     for quantum simulation of materials; please cite
         "P. Giannozzi et al., J. Phys.:Condens. Matter 21 395502 (2009);
         "P. Giannozzi et al., J. Phys.:Condens. Matter 29 465901 (2017);
          URL http://www.quantum-espresso.org", 
     in publications or presentations arising from this work. More details at
     http://www.quantum-espresso.org/quote

     Parallel version (MPI & OpenMP), running on      32 processor cores
     Number of MPI processes:                32
     Threads/MPI process:                     1

     MPI processes distributed on     1 nodes
     K-points division:     npool     =      32
     Reading input from nscf.in

     Current dimensions of program PWSCF are:
     Max number of different atomic species (ntypx) = 10
     Max number of k-points (npk) = 400000
     Max angular momentum in pseudopotentials (lmaxx) =  3

     Atomic positions and unit cell read from directory:
     ./pwscf.save/                                                                                                                                                                                                                                                   


     Subspace diagonalization in iterative solution of the eigenvalue problem:
     a serial algorithm will be used

     Message from routine setup:
     using ibrav=0 with symmetry is DISCOURAGED, use correct ibrav instead
     [opt_tetra]  Optimized tetrahedron method is used.

     G-vector sticks info
     --------------------
     sticks:   dense  smooth     PW     G-vecs:    dense   smooth      PW
     Sum         559     559    163                12183    12183    2017



     bravais-lattice index     =            0
     lattice parameter (alat)  =       5.8057  a.u.
     unit-cell volume          =     193.7024 (a.u.)^3
     number of atoms/cell      =            3
     number of atomic types    =            2
     number of electrons       =         8.00
     number of Kohn-Sham states=           15
     kinetic-energy cutoff     =      60.0000  Ry
     charge density cutoff     =     240.0000  Ry
     Exchange-correlation= PBE
                           (   1   4   3   4   0   0   0)

     celldm(1)=   5.805736  celldm(2)=   0.000000  celldm(3)=   0.000000
     celldm(4)=   0.000000  celldm(5)=   0.000000  celldm(6)=   0.000000

     crystal axes: (cart. coord. in units of alat)
               a(1) = (   1.000000   0.000000   0.000000 )  
               a(2) = (  -0.500000   0.866025   0.000000 )  
               a(3) = (   0.000000   0.000000   1.142964 )  

     reciprocal axes: (cart. coord. in units 2 pi/alat)
               b(1) = (  1.000000  0.577350 -0.000000 )  
               b(2) = (  0.000000  1.154701  0.000000 )  
               b(3) = (  0.000000 -0.000000  0.874918 )  


     PseudoPot. # 1 for B  read from file:
     ./B.pbe-nc.UPF
     MD5 check sum: 75cd07c0a87b9b912465967514cf4679
     Pseudo is Norm-conserving, Zval =  3.0
     Generated using "atomic" code by A. Dal Corso v.5.0.99 svn rev. 10869
     Using radial grid of 1059 points,  1 beta functions with: 
                l(1) =   1

     PseudoPot. # 2 for Mg read from file:
     ./Mg.pbe-n-nc.UPF
     MD5 check sum: fdc482938bc77a1b5407024e0eeca3bc
     Pseudo is Norm-conserving + core correction, Zval =  2.0
     Generated using "atomic" code by A. Dal Corso v.5.0.99 svn rev. 10869
     Using radial grid of 1129 points,  2 beta functions with: 
                l(1) =   0
                l(2) =   1

     atomic species   valence    mass     pseudopotential
        B              3.00    10.81100     B ( 1.00)
        Mg             2.00    24.30500     Mg( 1.00)

     24 Sym. Ops., with inversion, found



   Cartesian axes

     site n.     atom                  positions (alat units)
         1           Mg  tau(   1) = (   0.0000000   0.0000000   0.0000000  )
         2           B   tau(   2) = (  -0.0000005   0.5773505   0.5714820  )
         3           B   tau(   3) = (   0.5000005   0.2886748   0.5714820  )

     number of k points=   210 (tetrahedron method)

     Number of k-points >= 100: set verbosity='high' to print them.

     Dense  grid:    12183 G-vectors     FFT dimensions: (  30,  30,  36)

     Estimated max dynamical RAM per process >       7.98 MB

     Estimated total dynamical RAM >     255.42 MB

     The potential is recalculated from file :
     ./pwscf.save/charge-density

     Starting wfcs are   12 randomized atomic wfcs +    3 random wfcs

     Band Structure Calculation
     Davidson diagonalization with overlap

     ethr =  1.25E-08,  avg # of iterations = 13.8

     total cpu time spent up to now is        7.8 secs

     End of band structure calculation

     Number of k-points >= 100: set verbosity='high' to print the bands.

     the Fermi energy is     7.6902 ev

     Writing output data file ./pwscf.save/

     init_run     :      0.42s CPU      0.43s WALL (       1 calls)
     electrons    :      4.43s CPU      4.81s WALL (       1 calls)

     Called by init_run:
     wfcinit      :      0.00s CPU      0.00s WALL (       1 calls)
     potinit      :      0.03s CPU      0.04s WALL (       1 calls)
     hinit0       :      0.38s CPU      0.38s WALL (       1 calls)

     Called by electrons:
     c_bands      :      2.16s CPU      2.54s WALL (       1 calls)
     v_of_rho     :      0.02s CPU      0.03s WALL (       1 calls)

     Called by c_bands:
     init_us_2    :      0.00s CPU      0.00s WALL (       7 calls)
     cegterg      :      1.85s CPU      1.85s WALL (       7 calls)

     Called by sum_band:

     Called by *egterg:
     h_psi        :      1.30s CPU      1.31s WALL (      96 calls)
     g_psi        :      0.01s CPU      0.01s WALL (      82 calls)
     cdiaghg      :      0.08s CPU      0.08s WALL (      89 calls)

     Called by h_psi:
     h_psi:calbec :      0.04s CPU      0.04s WALL (      96 calls)
     vloc_psi     :      1.21s CPU      1.22s WALL (      96 calls)
     add_vuspsi   :      0.04s CPU      0.04s WALL (      96 calls)

     General routines
     calbec       :      0.04s CPU      0.04s WALL (      96 calls)
     fft          :      0.01s CPU      0.01s WALL (      11 calls)
     fftw         :      1.13s CPU      1.14s WALL (    1880 calls)
     davcio       :      0.00s CPU      0.21s WALL (      14 calls)

     Parallel routines

     PWSCF        :      7.45s CPU      7.87s WALL


   This run was terminated on:   2:36:46  23Nov2019            

=------------------------------------------------------------------------------=
   JOB DONE.
=------------------------------------------------------------------------------=
