
     Program PHONON v.6.4.1 starts on 23Nov2019 at  1:59:35 

     This program is part of the open-source Quantum ESPRESSO suite
     for quantum simulation of materials; please cite
         "P. Giannozzi et al., J. Phys.:Condens. Matter 21 395502 (2009);
         "P. Giannozzi et al., J. Phys.:Condens. Matter 29 465901 (2017);
          URL http://www.quantum-espresso.org", 
     in publications or presentations arising from this work. More details at
     http://www.quantum-espresso.org/quote

     Parallel version (MPI & OpenMP), running on      32 processor cores
     Number of MPI processes:                32
     Threads/MPI process:                     1

     MPI processes distributed on     1 nodes
     K-points division:     npool     =      32

     Reading xml data from directory:

     ./pwscf.save/

     IMPORTANT: XC functional enforced from input :
     Exchange-correlation= PBE
                           (   1   4   3   4   0   0   0)
     Any further DFT definition will be discarded
     Please, verify this is what you really want


     G-vector sticks info
     --------------------
     sticks:   dense  smooth     PW     G-vecs:    dense   smooth      PW
     Sum         559     559    163                12183    12183    2017

     Reading collected, re-writing distributed wavefunctions


     Dynamical matrices for ( 4, 4, 3)  uniform grid of q-points
     With a half shift
     (  12 q-points):
       N         xq(1)         xq(2)         xq(3) 
       1   0.125000000   0.216506381   0.145819693
       2   0.125000000   0.216506381  -0.437459078
       3   0.125000000   0.505181556   0.145819693
       4   0.125000000   0.505181556  -0.437459078
       5   0.125000000  -0.360843969   0.145819693
       6   0.125000000  -0.360843969  -0.437459078
       7   0.125000000  -0.072168794   0.145819693
       8   0.125000000  -0.072168794  -0.437459078
       9   0.375000000   0.649519144   0.145819693
      10   0.375000000   0.649519144  -0.437459078
      11   0.375000000  -0.216506381   0.145819693
      12   0.375000000  -0.216506381  -0.437459078
     Because shifted q grid is used, q2r will not work !

     Calculation of q =    0.1250000   0.2165064   0.1458197

     Subspace diagonalization in iterative solution of the eigenvalue problem:
     a serial algorithm will be used

     [opt_tetra]  Optimized tetrahedron method is used.

     G-vector sticks info
     --------------------
     sticks:   dense  smooth     PW     G-vecs:    dense   smooth      PW
     Sum         559     559    187                12183    12183    2257


     Title: 
     Phonon                                                                     


     bravais-lattice index     =            0
     lattice parameter (alat)  =       5.8057  a.u.
     unit-cell volume          =     193.7024 (a.u.)^3
     number of atoms/cell      =            3
     number of atomic types    =            2
     number of electrons       =         8.00
     number of Kohn-Sham states=            8
     kinetic-energy cutoff     =      60.0000  Ry
     charge density cutoff     =     240.0000  Ry
     Exchange-correlation= PBE
                           (   1   4   3   4   0   0   0)

     celldm(1)=   5.805736  celldm(2)=   0.000000  celldm(3)=   0.000000
     celldm(4)=   0.000000  celldm(5)=   0.000000  celldm(6)=   0.000000

     crystal axes: (cart. coord. in units of alat)
               a(1) = (   1.000000   0.000000   0.000000 )  
               a(2) = (  -0.500000   0.866025   0.000000 )  
               a(3) = (   0.000000   0.000000   1.142964 )  

     reciprocal axes: (cart. coord. in units 2 pi/alat)
               b(1) = (  1.000000  0.577350 -0.000000 )  
               b(2) = (  0.000000  1.154701  0.000000 )  
               b(3) = (  0.000000 -0.000000  0.874918 )  


     PseudoPot. # 1 for B  read from file:
     ./B.pbe-nc.UPF
     MD5 check sum: 75cd07c0a87b9b912465967514cf4679
     Pseudo is Norm-conserving, Zval =  3.0
     Generated using "atomic" code by A. Dal Corso v.5.0.99 svn rev. 10869
     Using radial grid of 1059 points,  1 beta functions with: 
                l(1) =   1

     PseudoPot. # 2 for Mg read from file:
     ./Mg.pbe-n-nc.UPF
     MD5 check sum: fdc482938bc77a1b5407024e0eeca3bc
     Pseudo is Norm-conserving + core correction, Zval =  2.0
     Generated using "atomic" code by A. Dal Corso v.5.0.99 svn rev. 10869
     Using radial grid of 1129 points,  2 beta functions with: 
                l(1) =   0
                l(2) =   1

     atomic species   valence    mass     pseudopotential
        B              3.00    10.81100     B ( 1.00)
        Mg             2.00    24.30500     Mg( 1.00)

     24 Sym. Ops., with inversion, found



   Cartesian axes

     site n.     atom                  positions (alat units)
         1           Mg  tau(   1) = (   0.0000000   0.0000000   0.0000000  )
         2           B   tau(   2) = (  -0.0000005   0.5773505   0.5714820  )
         3           B   tau(   3) = (   0.5000005   0.2886748   0.5714820  )

     number of k points=   432 (tetrahedron method)

     Number of k-points >= 100: set verbosity='high' to print them.

     Dense  grid:    12183 G-vectors     FFT dimensions: (  30,  30,  36)

     Estimated max dynamical RAM per process >       6.45 MB

     Estimated total dynamical RAM >     206.48 MB

     The potential is recalculated from file :
     ./_ph0/pwscf.q_1/pwscf.save/charge-density

     Starting wfcs are   12 atomic wfcs

     Band Structure Calculation
     Davidson diagonalization with overlap

     ethr =  1.25E-10,  avg # of iterations = 17.3

     total cpu time spent up to now is        4.0 secs

     End of band structure calculation

     Number of k-points >= 100: set verbosity='high' to print the bands.

     the Fermi energy is     7.6693 ev

     Writing output data file ./_ph0/pwscf.q_1/pwscf.save/
 
     [dfpt_tetra]  Dos(E_F)[/Ry] :   0.8946587E+01

     Phonon                                                                     

     bravais-lattice index     =            0
     lattice parameter (alat)  =       5.8057  a.u.
     unit-cell volume          =     193.7024 (a.u.)^3
     number of atoms/cell      =            3
     number of atomic types    =            2
     kinetic-energy cut-off    =      60.0000  Ry
     charge density cut-off    =     240.0000  Ry
     convergence threshold     =      1.0E-15
     beta                      =       0.3000
     number of iterations used =            4
     Exchange-correlation= PBE
                           (   1   4   3   4   0   0   0)


     celldm(1)=    5.80574  celldm(2)=    0.00000  celldm(3)=    0.00000
     celldm(4)=    0.00000  celldm(5)=    0.00000  celldm(6)=    0.00000

     crystal axes: (cart. coord. in units of alat)
               a(1) = (  1.0000  0.0000  0.0000 )  
               a(2) = ( -0.5000  0.8660  0.0000 )  
               a(3) = (  0.0000  0.0000  1.1430 )  

     reciprocal axes: (cart. coord. in units 2 pi/alat)
               b(1) = (  1.0000  0.5774 -0.0000 )  
               b(2) = (  0.0000  1.1547  0.0000 )  
               b(3) = (  0.0000 -0.0000  0.8749 )  


     Atoms inside the unit cell: 

     Cartesian axes

     site n.  atom      mass           positions (alat units)
        1     Mg  24.3050   tau(    1) = (    0.00000    0.00000    0.00000  )
        2     B   10.8110   tau(    2) = (   -0.00000    0.57735    0.57148  )
        3     B   10.8110   tau(    3) = (    0.50000    0.28867    0.57148  )

     Computing dynamical matrix for 
                    q = (   0.1250000   0.2165064   0.1458197 )

      2 Sym.Ops. (no q -> -q+G )


     G cutoff =  204.9114  (  12183 G-vectors)     FFT grid: ( 30, 30, 36)
     number of k points=   432

     PseudoPot. # 1 for B  read from file:
     ./B.pbe-nc.UPF
     MD5 check sum: 75cd07c0a87b9b912465967514cf4679
     Pseudo is Norm-conserving, Zval =  3.0
     Generated using "atomic" code by A. Dal Corso v.5.0.99 svn rev. 10869
     Using radial grid of 1059 points,  1 beta functions with: 
                l(1) =   1

     PseudoPot. # 2 for Mg read from file:
     ./Mg.pbe-n-nc.UPF
     MD5 check sum: fdc482938bc77a1b5407024e0eeca3bc
     Pseudo is Norm-conserving + core correction, Zval =  2.0
     Generated using "atomic" code by A. Dal Corso v.5.0.99 svn rev. 10869
     Using radial grid of 1129 points,  2 beta functions with: 
                l(1) =   0
                l(2) =   1


     Atomic displacements:
     There are   9 irreducible representations

     Representation     1      1 modes -  To be done

     Representation     2      1 modes -  To be done

     Representation     3      1 modes -  To be done

     Representation     4      1 modes -  To be done

     Representation     5      1 modes -  To be done

     Representation     6      1 modes -  To be done

     Representation     7      1 modes -  To be done

     Representation     8      1 modes -  To be done

     Representation     9      1 modes -  To be done



     Alpha used in Ewald sum =   2.5000
     PHONON       :      6.32s CPU      6.79s WALL



     Representation #  1 mode #   1

     Self-consistent Calculation

      iter #   1 total cpu time :     7.4 secs   av.it.:   3.3
      thresh= 1.000E-02 alpha_mix =  0.300 |ddv_scf|^2 =  1.154E-03

      iter #   2 total cpu time :     8.1 secs   av.it.:   4.3
      thresh= 3.397E-03 alpha_mix =  0.300 |ddv_scf|^2 =  7.947E-03

      iter #   3 total cpu time :     8.7 secs   av.it.:   3.5
      thresh= 8.915E-03 alpha_mix =  0.300 |ddv_scf|^2 =  7.647E-07

      iter #   4 total cpu time :     9.5 secs   av.it.:   5.0
      thresh= 8.745E-05 alpha_mix =  0.300 |ddv_scf|^2 =  3.858E-08

      iter #   5 total cpu time :    10.3 secs   av.it.:   5.1
      thresh= 1.964E-05 alpha_mix =  0.300 |ddv_scf|^2 =  1.054E-08

      iter #   6 total cpu time :    11.0 secs   av.it.:   4.9
      thresh= 1.027E-05 alpha_mix =  0.300 |ddv_scf|^2 =  9.918E-10

      iter #   7 total cpu time :    11.8 secs   av.it.:   4.7
      thresh= 3.149E-06 alpha_mix =  0.300 |ddv_scf|^2 =  1.577E-09

      iter #   8 total cpu time :    12.4 secs   av.it.:   4.0
      thresh= 3.971E-06 alpha_mix =  0.300 |ddv_scf|^2 =  6.728E-11

      iter #   9 total cpu time :    13.1 secs   av.it.:   4.2
      thresh= 8.202E-07 alpha_mix =  0.300 |ddv_scf|^2 =  1.402E-11

      iter #  10 total cpu time :    13.8 secs   av.it.:   4.9
      thresh= 3.744E-07 alpha_mix =  0.300 |ddv_scf|^2 =  7.186E-12

      iter #  11 total cpu time :    14.5 secs   av.it.:   4.1
      thresh= 2.681E-07 alpha_mix =  0.300 |ddv_scf|^2 =  2.790E-13

      iter #  12 total cpu time :    15.3 secs   av.it.:   4.6
      thresh= 5.282E-08 alpha_mix =  0.300 |ddv_scf|^2 =  8.960E-15

      iter #  13 total cpu time :    16.1 secs   av.it.:   4.9
      thresh= 9.466E-09 alpha_mix =  0.300 |ddv_scf|^2 =  8.174E-15

      iter #  14 total cpu time :    16.8 secs   av.it.:   4.1
      thresh= 9.041E-09 alpha_mix =  0.300 |ddv_scf|^2 =  1.185E-15

      iter #  15 total cpu time :    17.4 secs   av.it.:   4.4
      thresh= 3.443E-09 alpha_mix =  0.300 |ddv_scf|^2 =  5.136E-17

     End of self-consistent calculation

     Convergence has been achieved 


     Representation #  2 mode #   2

     Self-consistent Calculation

      iter #   1 total cpu time :    18.1 secs   av.it.:   3.0
      thresh= 1.000E-02 alpha_mix =  0.300 |ddv_scf|^2 =  2.792E-07

      iter #   2 total cpu time :    18.9 secs   av.it.:   5.2
      thresh= 5.284E-05 alpha_mix =  0.300 |ddv_scf|^2 =  7.373E-08

      iter #   3 total cpu time :    19.7 secs   av.it.:   5.1
      thresh= 2.715E-05 alpha_mix =  0.300 |ddv_scf|^2 =  1.027E-08

      iter #   4 total cpu time :    20.5 secs   av.it.:   5.4
      thresh= 1.013E-05 alpha_mix =  0.300 |ddv_scf|^2 =  7.107E-10

      iter #   5 total cpu time :    21.3 secs   av.it.:   5.1
      thresh= 2.666E-06 alpha_mix =  0.300 |ddv_scf|^2 =  9.336E-12

      iter #   6 total cpu time :    22.1 secs   av.it.:   5.4
      thresh= 3.055E-07 alpha_mix =  0.300 |ddv_scf|^2 =  1.989E-12

      iter #   7 total cpu time :    22.9 secs   av.it.:   5.3
      thresh= 1.410E-07 alpha_mix =  0.300 |ddv_scf|^2 =  1.226E-14

      iter #   8 total cpu time :    23.7 secs   av.it.:   5.0
      thresh= 1.107E-08 alpha_mix =  0.300 |ddv_scf|^2 =  4.714E-15

      iter #   9 total cpu time :    24.5 secs   av.it.:   5.3
      thresh= 6.866E-09 alpha_mix =  0.300 |ddv_scf|^2 =  8.092E-17

     End of self-consistent calculation

     Convergence has been achieved 


     Representation #  3 mode #   3

     Self-consistent Calculation

      iter #   1 total cpu time :    25.0 secs   av.it.:   2.5
      thresh= 1.000E-02 alpha_mix =  0.300 |ddv_scf|^2 =  9.185E-05

      iter #   2 total cpu time :    25.8 secs   av.it.:   4.3
      thresh= 9.584E-04 alpha_mix =  0.300 |ddv_scf|^2 =  6.569E-04

      iter #   3 total cpu time :    26.4 secs   av.it.:   3.5
      thresh= 2.563E-03 alpha_mix =  0.300 |ddv_scf|^2 =  1.818E-07

      iter #   4 total cpu time :    27.2 secs   av.it.:   4.5
      thresh= 4.264E-05 alpha_mix =  0.300 |ddv_scf|^2 =  4.752E-08

      iter #   5 total cpu time :    27.8 secs   av.it.:   4.1
      thresh= 2.180E-05 alpha_mix =  0.300 |ddv_scf|^2 =  5.937E-09

      iter #   6 total cpu time :    28.5 secs   av.it.:   4.3
      thresh= 7.705E-06 alpha_mix =  0.300 |ddv_scf|^2 =  2.420E-10

      iter #   7 total cpu time :    29.3 secs   av.it.:   4.6
      thresh= 1.556E-06 alpha_mix =  0.300 |ddv_scf|^2 =  9.305E-12

      iter #   8 total cpu time :    30.0 secs   av.it.:   4.6
      thresh= 3.050E-07 alpha_mix =  0.300 |ddv_scf|^2 =  2.154E-11

      iter #   9 total cpu time :    30.6 secs   av.it.:   3.9
      thresh= 4.642E-07 alpha_mix =  0.300 |ddv_scf|^2 =  1.142E-12

      iter #  10 total cpu time :    31.4 secs   av.it.:   4.6
      thresh= 1.069E-07 alpha_mix =  0.300 |ddv_scf|^2 =  3.008E-13

      iter #  11 total cpu time :    32.1 secs   av.it.:   4.6
      thresh= 5.485E-08 alpha_mix =  0.300 |ddv_scf|^2 =  7.145E-14

      iter #  12 total cpu time :    32.8 secs   av.it.:   4.2
      thresh= 2.673E-08 alpha_mix =  0.300 |ddv_scf|^2 =  5.761E-14

      iter #  13 total cpu time :    33.5 secs   av.it.:   4.2
      thresh= 2.400E-08 alpha_mix =  0.300 |ddv_scf|^2 =  2.825E-14

      iter #  14 total cpu time :    34.1 secs   av.it.:   4.1
      thresh= 1.681E-08 alpha_mix =  0.300 |ddv_scf|^2 =  1.981E-14

      iter #  15 total cpu time :    34.8 secs   av.it.:   3.9
      thresh= 1.407E-08 alpha_mix =  0.300 |ddv_scf|^2 =  3.915E-15

      iter #  16 total cpu time :    35.5 secs   av.it.:   4.5
      thresh= 6.257E-09 alpha_mix =  0.300 |ddv_scf|^2 =  5.906E-16

     End of self-consistent calculation

     Convergence has been achieved 


     Representation #  4 mode #   4

     Self-consistent Calculation

      iter #   1 total cpu time :    36.2 secs   av.it.:   3.2
      thresh= 1.000E-02 alpha_mix =  0.300 |ddv_scf|^2 =  5.248E-04

      iter #   2 total cpu time :    36.9 secs   av.it.:   4.3
      thresh= 2.291E-03 alpha_mix =  0.300 |ddv_scf|^2 =  3.467E-03

      iter #   3 total cpu time :    37.6 secs   av.it.:   3.5
      thresh= 5.888E-03 alpha_mix =  0.300 |ddv_scf|^2 =  2.178E-06

      iter #   4 total cpu time :    38.3 secs   av.it.:   4.7
      thresh= 1.476E-04 alpha_mix =  0.300 |ddv_scf|^2 =  3.465E-08

      iter #   5 total cpu time :    39.1 secs   av.it.:   5.1
      thresh= 1.861E-05 alpha_mix =  0.300 |ddv_scf|^2 =  1.676E-08

      iter #   6 total cpu time :    39.8 secs   av.it.:   4.7
      thresh= 1.295E-05 alpha_mix =  0.300 |ddv_scf|^2 =  9.426E-10

      iter #   7 total cpu time :    40.6 secs   av.it.:   4.4
      thresh= 3.070E-06 alpha_mix =  0.300 |ddv_scf|^2 =  1.669E-09

      iter #   8 total cpu time :    41.3 secs   av.it.:   4.2
      thresh= 4.085E-06 alpha_mix =  0.300 |ddv_scf|^2 =  4.630E-11

      iter #   9 total cpu time :    42.0 secs   av.it.:   4.4
      thresh= 6.805E-07 alpha_mix =  0.300 |ddv_scf|^2 =  1.261E-11

      iter #  10 total cpu time :    42.7 secs   av.it.:   4.2
      thresh= 3.551E-07 alpha_mix =  0.300 |ddv_scf|^2 =  2.484E-12

      iter #  11 total cpu time :    43.4 secs   av.it.:   4.8
      thresh= 1.576E-07 alpha_mix =  0.300 |ddv_scf|^2 =  1.007E-13

      iter #  12 total cpu time :    44.2 secs   av.it.:   5.1
      thresh= 3.174E-08 alpha_mix =  0.300 |ddv_scf|^2 =  6.608E-14

      iter #  13 total cpu time :    45.1 secs   av.it.:   4.7
      thresh= 2.571E-08 alpha_mix =  0.300 |ddv_scf|^2 =  4.408E-14

      iter #  14 total cpu time :    45.7 secs   av.it.:   4.2
      thresh= 2.100E-08 alpha_mix =  0.300 |ddv_scf|^2 =  3.397E-15

      iter #  15 total cpu time :    46.4 secs   av.it.:   4.3
      thresh= 5.829E-09 alpha_mix =  0.300 |ddv_scf|^2 =  8.585E-16

     End of self-consistent calculation

     Convergence has been achieved 


     Representation #  5 mode #   5

     Self-consistent Calculation

      iter #   1 total cpu time :    47.1 secs   av.it.:   3.0
      thresh= 1.000E-02 alpha_mix =  0.300 |ddv_scf|^2 =  9.892E-07

      iter #   2 total cpu time :    47.8 secs   av.it.:   5.0
      thresh= 9.946E-05 alpha_mix =  0.300 |ddv_scf|^2 =  1.667E-07

      iter #   3 total cpu time :    48.6 secs   av.it.:   5.1
      thresh= 4.083E-05 alpha_mix =  0.300 |ddv_scf|^2 =  1.761E-08

      iter #   4 total cpu time :    49.4 secs   av.it.:   5.4
      thresh= 1.327E-05 alpha_mix =  0.300 |ddv_scf|^2 =  1.140E-09

      iter #   5 total cpu time :    50.2 secs   av.it.:   5.0
      thresh= 3.376E-06 alpha_mix =  0.300 |ddv_scf|^2 =  2.894E-11

      iter #   6 total cpu time :    51.0 secs   av.it.:   5.3
      thresh= 5.380E-07 alpha_mix =  0.300 |ddv_scf|^2 =  3.235E-12

      iter #   7 total cpu time :    51.8 secs   av.it.:   5.3
      thresh= 1.798E-07 alpha_mix =  0.300 |ddv_scf|^2 =  9.765E-15

      iter #   8 total cpu time :    52.6 secs   av.it.:   5.1
      thresh= 9.882E-09 alpha_mix =  0.300 |ddv_scf|^2 =  4.267E-15

      iter #   9 total cpu time :    53.4 secs   av.it.:   5.2
      thresh= 6.532E-09 alpha_mix =  0.300 |ddv_scf|^2 =  5.268E-17

     End of self-consistent calculation

     Convergence has been achieved 


     Representation #  6 mode #   6

     Self-consistent Calculation

      iter #   1 total cpu time :    54.0 secs   av.it.:   2.9
      thresh= 1.000E-02 alpha_mix =  0.300 |ddv_scf|^2 =  4.484E-04

      iter #   2 total cpu time :    54.7 secs   av.it.:   4.3
      thresh= 2.117E-03 alpha_mix =  0.300 |ddv_scf|^2 =  3.137E-03

      iter #   3 total cpu time :    55.5 secs   av.it.:   3.5
      thresh= 5.601E-03 alpha_mix =  0.300 |ddv_scf|^2 =  1.489E-07

      iter #   4 total cpu time :    56.2 secs   av.it.:   4.6
      thresh= 3.859E-05 alpha_mix =  0.300 |ddv_scf|^2 =  6.131E-08

      iter #   5 total cpu time :    56.9 secs   av.it.:   4.1
      thresh= 2.476E-05 alpha_mix =  0.300 |ddv_scf|^2 =  2.646E-09

      iter #   6 total cpu time :    57.6 secs   av.it.:   4.3
      thresh= 5.144E-06 alpha_mix =  0.300 |ddv_scf|^2 =  4.116E-11

      iter #   7 total cpu time :    58.4 secs   av.it.:   5.2
      thresh= 6.416E-07 alpha_mix =  0.300 |ddv_scf|^2 =  1.183E-11

      iter #   8 total cpu time :    59.1 secs   av.it.:   4.4
      thresh= 3.439E-07 alpha_mix =  0.300 |ddv_scf|^2 =  1.639E-11

      iter #   9 total cpu time :    59.7 secs   av.it.:   3.8
      thresh= 4.048E-07 alpha_mix =  0.300 |ddv_scf|^2 =  2.539E-12

      iter #  10 total cpu time :    60.6 secs   av.it.:   4.5
      thresh= 1.593E-07 alpha_mix =  0.300 |ddv_scf|^2 =  4.803E-13

      iter #  11 total cpu time :    61.3 secs   av.it.:   4.0
      thresh= 6.930E-08 alpha_mix =  0.300 |ddv_scf|^2 =  5.153E-14

      iter #  12 total cpu time :    62.1 secs   av.it.:   4.7
      thresh= 2.270E-08 alpha_mix =  0.300 |ddv_scf|^2 =  7.247E-15

      iter #  13 total cpu time :    62.9 secs   av.it.:   4.8
      thresh= 8.513E-09 alpha_mix =  0.300 |ddv_scf|^2 =  2.095E-15

      iter #  14 total cpu time :    63.7 secs   av.it.:   5.0
      thresh= 4.577E-09 alpha_mix =  0.300 |ddv_scf|^2 =  2.161E-16

     End of self-consistent calculation

     Convergence has been achieved 


     Representation #  7 mode #   7

     Self-consistent Calculation

      iter #   1 total cpu time :    64.4 secs   av.it.:   3.1
      thresh= 1.000E-02 alpha_mix =  0.300 |ddv_scf|^2 =  2.502E-06

      iter #   2 total cpu time :    65.1 secs   av.it.:   5.0
      thresh= 1.582E-04 alpha_mix =  0.300 |ddv_scf|^2 =  2.995E-07

      iter #   3 total cpu time :    65.9 secs   av.it.:   5.0
      thresh= 5.472E-05 alpha_mix =  0.300 |ddv_scf|^2 =  2.509E-08

      iter #   4 total cpu time :    66.7 secs   av.it.:   5.4
      thresh= 1.584E-05 alpha_mix =  0.300 |ddv_scf|^2 =  1.425E-09

      iter #   5 total cpu time :    67.5 secs   av.it.:   5.0
      thresh= 3.775E-06 alpha_mix =  0.300 |ddv_scf|^2 =  5.428E-11

      iter #   6 total cpu time :    68.5 secs   av.it.:   5.1
      thresh= 7.368E-07 alpha_mix =  0.300 |ddv_scf|^2 =  4.432E-12

      iter #   7 total cpu time :    69.3 secs   av.it.:   5.5
      thresh= 2.105E-07 alpha_mix =  0.300 |ddv_scf|^2 =  1.080E-14

      iter #   8 total cpu time :    70.1 secs   av.it.:   5.2
      thresh= 1.039E-08 alpha_mix =  0.300 |ddv_scf|^2 =  4.353E-15

      iter #   9 total cpu time :    70.9 secs   av.it.:   5.3
      thresh= 6.598E-09 alpha_mix =  0.300 |ddv_scf|^2 =  9.134E-17

     End of self-consistent calculation

     Convergence has been achieved 


     Representation #  8 mode #   8

     Self-consistent Calculation

      iter #   1 total cpu time :    71.5 secs   av.it.:   2.0
      thresh= 1.000E-02 alpha_mix =  0.300 |ddv_scf|^2 =  3.516E-07

      iter #   2 total cpu time :    72.1 secs   av.it.:   4.0
      thresh= 5.929E-05 alpha_mix =  0.300 |ddv_scf|^2 =  1.662E-07

      iter #   3 total cpu time :    72.8 secs   av.it.:   4.2
      thresh= 4.076E-05 alpha_mix =  0.300 |ddv_scf|^2 =  3.980E-09

      iter #   4 total cpu time :    73.6 secs   av.it.:   4.9
      thresh= 6.309E-06 alpha_mix =  0.300 |ddv_scf|^2 =  8.644E-11

      iter #   5 total cpu time :    74.4 secs   av.it.:   5.4
      thresh= 9.297E-07 alpha_mix =  0.300 |ddv_scf|^2 =  3.611E-11

      iter #   6 total cpu time :    75.2 secs   av.it.:   5.1
      thresh= 6.009E-07 alpha_mix =  0.300 |ddv_scf|^2 =  9.803E-13

      iter #   7 total cpu time :    76.1 secs   av.it.:   5.1
      thresh= 9.901E-08 alpha_mix =  0.300 |ddv_scf|^2 =  1.042E-14

      iter #   8 total cpu time :    76.9 secs   av.it.:   4.9
      thresh= 1.021E-08 alpha_mix =  0.300 |ddv_scf|^2 =  4.129E-15

      iter #   9 total cpu time :    77.7 secs   av.it.:   5.2
      thresh= 6.426E-09 alpha_mix =  0.300 |ddv_scf|^2 =  2.822E-17

     End of self-consistent calculation

     Convergence has been achieved 


     Representation #  9 mode #   9

     Self-consistent Calculation

      iter #   1 total cpu time :    78.4 secs   av.it.:   3.3
      thresh= 1.000E-02 alpha_mix =  0.300 |ddv_scf|^2 =  1.261E-03

      iter #   2 total cpu time :    79.1 secs   av.it.:   4.3
      thresh= 3.550E-03 alpha_mix =  0.300 |ddv_scf|^2 =  8.875E-03

      iter #   3 total cpu time :    79.7 secs   av.it.:   3.5
      thresh= 9.421E-03 alpha_mix =  0.300 |ddv_scf|^2 =  2.666E-07

      iter #   4 total cpu time :    80.5 secs   av.it.:   5.3
      thresh= 5.164E-05 alpha_mix =  0.300 |ddv_scf|^2 =  5.825E-08

      iter #   5 total cpu time :    81.4 secs   av.it.:   4.9
      thresh= 2.414E-05 alpha_mix =  0.300 |ddv_scf|^2 =  8.609E-09

      iter #   6 total cpu time :    82.2 secs   av.it.:   4.7
      thresh= 9.279E-06 alpha_mix =  0.300 |ddv_scf|^2 =  1.273E-09

      iter #   7 total cpu time :    82.9 secs   av.it.:   4.6
      thresh= 3.568E-06 alpha_mix =  0.300 |ddv_scf|^2 =  9.139E-11

      iter #   8 total cpu time :    83.6 secs   av.it.:   4.5
      thresh= 9.560E-07 alpha_mix =  0.300 |ddv_scf|^2 =  5.278E-11

      iter #   9 total cpu time :    84.3 secs   av.it.:   4.2
      thresh= 7.265E-07 alpha_mix =  0.300 |ddv_scf|^2 =  6.263E-12

      iter #  10 total cpu time :    85.0 secs   av.it.:   4.3
      thresh= 2.503E-07 alpha_mix =  0.300 |ddv_scf|^2 =  9.124E-13

      iter #  11 total cpu time :    85.7 secs   av.it.:   4.5
      thresh= 9.552E-08 alpha_mix =  0.300 |ddv_scf|^2 =  2.706E-13

      iter #  12 total cpu time :    86.5 secs   av.it.:   5.0
      thresh= 5.202E-08 alpha_mix =  0.300 |ddv_scf|^2 =  1.595E-14

      iter #  13 total cpu time :    87.3 secs   av.it.:   4.7
      thresh= 1.263E-08 alpha_mix =  0.300 |ddv_scf|^2 =  7.224E-15

      iter #  14 total cpu time :    88.0 secs   av.it.:   4.9
      thresh= 8.499E-09 alpha_mix =  0.300 |ddv_scf|^2 =  1.090E-15

      iter #  15 total cpu time :    88.7 secs   av.it.:   4.4
      thresh= 3.302E-09 alpha_mix =  0.300 |ddv_scf|^2 =  2.456E-16

     End of self-consistent calculation

     Convergence has been achieved 

     Number of q in the star =   12
     List of q in the star:
          1   0.125000000   0.216506381   0.145819693
          2   0.125000000   0.216506381  -0.145819693
          3  -0.125000000  -0.216506381  -0.145819693
          4  -0.125000000   0.216506381   0.145819693
          5   0.250000000   0.000000000   0.145819693
          6  -0.250000000  -0.000000000   0.145819693
          7   0.125000000  -0.216506381   0.145819693
          8   0.250000000   0.000000000  -0.145819693
          9  -0.250000000  -0.000000000  -0.145819693
         10  -0.125000000   0.216506381  -0.145819693
         11   0.125000000  -0.216506381  -0.145819693
         12  -0.125000000  -0.216506381   0.145819693

     Diagonalizing the dynamical matrix

     q = (    0.125000000   0.216506381   0.145819693 ) 

 **************************************************************************
     freq (    1) =       5.662711 [THz] =     188.887705 [cm-1]
     freq (    2) =       6.195976 [THz] =     206.675529 [cm-1]
     freq (    3) =       7.933643 [THz] =     264.637853 [cm-1]
     freq (    4) =      11.607767 [THz] =     387.193430 [cm-1]
     freq (    5) =      11.923481 [THz] =     397.724518 [cm-1]
     freq (    6) =      13.685387 [THz] =     456.495365 [cm-1]
     freq (    7) =      19.025938 [THz] =     634.636988 [cm-1]
     freq (    8) =      19.720677 [THz] =     657.810965 [cm-1]
     freq (    9) =      20.170022 [THz] =     672.799510 [cm-1]
 **************************************************************************

     Calculation of q =    0.1250000   0.2165064  -0.4374591
     [opt_tetra]  Optimized tetrahedron method is used.

     G-vector sticks info
     --------------------
     sticks:   dense  smooth     PW     G-vecs:    dense   smooth      PW
     Sum         559     559    199                12183    12183    2473


     Title: 
     Phonon                                                                     


     bravais-lattice index     =            0
     lattice parameter (alat)  =       5.8057  a.u.
     unit-cell volume          =     193.7024 (a.u.)^3
     number of atoms/cell      =            3
     number of atomic types    =            2
     number of electrons       =         8.00
     number of Kohn-Sham states=            8
     kinetic-energy cutoff     =      60.0000  Ry
     charge density cutoff     =     240.0000  Ry
     Exchange-correlation= PBE
                           (   1   4   3   4   0   0   0)

     celldm(1)=   5.805736  celldm(2)=   0.000000  celldm(3)=   0.000000
     celldm(4)=   0.000000  celldm(5)=   0.000000  celldm(6)=   0.000000

     crystal axes: (cart. coord. in units of alat)
               a(1) = (   1.000000   0.000000   0.000000 )  
               a(2) = (  -0.500000   0.866025   0.000000 )  
               a(3) = (   0.000000   0.000000   1.142964 )  

     reciprocal axes: (cart. coord. in units 2 pi/alat)
               b(1) = (  1.000000  0.577350 -0.000000 )  
               b(2) = (  0.000000  1.154701  0.000000 )  
               b(3) = (  0.000000 -0.000000  0.874918 )  


     PseudoPot. # 1 for B  read from file:
     ./B.pbe-nc.UPF
     MD5 check sum: 75cd07c0a87b9b912465967514cf4679
     Pseudo is Norm-conserving, Zval =  3.0
     Generated using "atomic" code by A. Dal Corso v.5.0.99 svn rev. 10869
     Using radial grid of 1059 points,  1 beta functions with: 
                l(1) =   1

     PseudoPot. # 2 for Mg read from file:
     ./Mg.pbe-n-nc.UPF
     MD5 check sum: fdc482938bc77a1b5407024e0eeca3bc
     Pseudo is Norm-conserving + core correction, Zval =  2.0
     Generated using "atomic" code by A. Dal Corso v.5.0.99 svn rev. 10869
     Using radial grid of 1129 points,  2 beta functions with: 
                l(1) =   0
                l(2) =   1

     atomic species   valence    mass     pseudopotential
        B              3.00    10.81100     B ( 1.00)
        Mg             2.00    24.30500     Mg( 1.00)

     24 Sym. Ops., with inversion, found



   Cartesian axes

     site n.     atom                  positions (alat units)
         1           Mg  tau(   1) = (   0.0000000   0.0000000   0.0000000  )
         2           B   tau(   2) = (  -0.0000005   0.5773505   0.5714820  )
         3           B   tau(   3) = (   0.5000005   0.2886748   0.5714820  )

     number of k points=   288 (tetrahedron method)

     Number of k-points >= 100: set verbosity='high' to print them.

     Dense  grid:    12183 G-vectors     FFT dimensions: (  30,  30,  36)

     Estimated max dynamical RAM per process >       6.46 MB

     Estimated total dynamical RAM >     206.57 MB

     The potential is recalculated from file :
     ./_ph0/pwscf.q_2/pwscf.save/charge-density

     Starting wfcs are   12 atomic wfcs

     Band Structure Calculation
     Davidson diagonalization with overlap

     ethr =  1.25E-10,  avg # of iterations = 17.0

     total cpu time spent up to now is        7.1 secs

     End of band structure calculation

     Number of k-points >= 100: set verbosity='high' to print the bands.

     the Fermi energy is     7.6693 ev

     Writing output data file ./_ph0/pwscf.q_2/pwscf.save/
 
     [dfpt_tetra]  Dos(E_F)[/Ry] :   0.8946587E+01

     Phonon                                                                     

     bravais-lattice index     =            0
     lattice parameter (alat)  =       5.8057  a.u.
     unit-cell volume          =     193.7024 (a.u.)^3
     number of atoms/cell      =            3
     number of atomic types    =            2
     kinetic-energy cut-off    =      60.0000  Ry
     charge density cut-off    =     240.0000  Ry
     convergence threshold     =      1.0E-15
     beta                      =       0.3000
     number of iterations used =            4
     Exchange-correlation= PBE
                           (   1   4   3   4   0   0   0)


     celldm(1)=    5.80574  celldm(2)=    0.00000  celldm(3)=    0.00000
     celldm(4)=    0.00000  celldm(5)=    0.00000  celldm(6)=    0.00000

     crystal axes: (cart. coord. in units of alat)
               a(1) = (  1.0000  0.0000  0.0000 )  
               a(2) = ( -0.5000  0.8660  0.0000 )  
               a(3) = (  0.0000  0.0000  1.1430 )  

     reciprocal axes: (cart. coord. in units 2 pi/alat)
               b(1) = (  1.0000  0.5774 -0.0000 )  
               b(2) = (  0.0000  1.1547  0.0000 )  
               b(3) = (  0.0000 -0.0000  0.8749 )  


     Atoms inside the unit cell: 

     Cartesian axes

     site n.  atom      mass           positions (alat units)
        1     Mg  24.3050   tau(    1) = (    0.00000    0.00000    0.00000  )
        2     B   10.8110   tau(    2) = (   -0.00000    0.57735    0.57148  )
        3     B   10.8110   tau(    3) = (    0.50000    0.28867    0.57148  )

     Computing dynamical matrix for 
                    q = (   0.1250000   0.2165064  -0.4374591 )

      4 Sym.Ops. (no q -> -q+G )


     G cutoff =  204.9114  (  12183 G-vectors)     FFT grid: ( 30, 30, 36)
     number of k points=   288

     PseudoPot. # 1 for B  read from file:
     ./B.pbe-nc.UPF
     MD5 check sum: 75cd07c0a87b9b912465967514cf4679
     Pseudo is Norm-conserving, Zval =  3.0
     Generated using "atomic" code by A. Dal Corso v.5.0.99 svn rev. 10869
     Using radial grid of 1059 points,  1 beta functions with: 
                l(1) =   1

     PseudoPot. # 2 for Mg read from file:
     ./Mg.pbe-n-nc.UPF
     MD5 check sum: fdc482938bc77a1b5407024e0eeca3bc
     Pseudo is Norm-conserving + core correction, Zval =  2.0
     Generated using "atomic" code by A. Dal Corso v.5.0.99 svn rev. 10869
     Using radial grid of 1129 points,  2 beta functions with: 
                l(1) =   0
                l(2) =   1


     Atomic displacements:
     There are   9 irreducible representations

     Representation     1      1 modes -  To be done

     Representation     2      1 modes -  To be done

     Representation     3      1 modes -  To be done

     Representation     4      1 modes -  To be done

     Representation     5      1 modes -  To be done

     Representation     6      1 modes -  To be done

     Representation     7      1 modes -  To be done

     Representation     8      1 modes -  To be done

     Representation     9      1 modes -  To be done



     Alpha used in Ewald sum =   2.5000
     PHONON       :   1m23.30s CPU   1m33.85s WALL



     Representation #  1 mode #   1

     Self-consistent Calculation

      iter #   1 total cpu time :    94.3 secs   av.it.:   3.1
      thresh= 1.000E-02 alpha_mix =  0.300 |ddv_scf|^2 =  1.065E-05

      iter #   2 total cpu time :    94.8 secs   av.it.:   4.7
      thresh= 3.264E-04 alpha_mix =  0.300 |ddv_scf|^2 =  4.711E-06

      iter #   3 total cpu time :    95.3 secs   av.it.:   4.2
      thresh= 2.171E-04 alpha_mix =  0.300 |ddv_scf|^2 =  1.642E-07

      iter #   4 total cpu time :    95.9 secs   av.it.:   5.0
      thresh= 4.052E-05 alpha_mix =  0.300 |ddv_scf|^2 =  4.856E-09

      iter #   5 total cpu time :    96.5 secs   av.it.:   4.7
      thresh= 6.968E-06 alpha_mix =  0.300 |ddv_scf|^2 =  5.478E-10

      iter #   6 total cpu time :    97.0 secs   av.it.:   4.6
      thresh= 2.341E-06 alpha_mix =  0.300 |ddv_scf|^2 =  6.514E-11

      iter #   7 total cpu time :    97.5 secs   av.it.:   4.9
      thresh= 8.071E-07 alpha_mix =  0.300 |ddv_scf|^2 =  1.035E-12

      iter #   8 total cpu time :    98.1 secs   av.it.:   4.8
      thresh= 1.018E-07 alpha_mix =  0.300 |ddv_scf|^2 =  4.020E-13

      iter #   9 total cpu time :    98.6 secs   av.it.:   4.3
      thresh= 6.340E-08 alpha_mix =  0.300 |ddv_scf|^2 =  8.384E-15

      iter #  10 total cpu time :    99.2 secs   av.it.:   4.8
      thresh= 9.156E-09 alpha_mix =  0.300 |ddv_scf|^2 =  2.797E-15

      iter #  11 total cpu time :    99.7 secs   av.it.:   4.9
      thresh= 5.289E-09 alpha_mix =  0.300 |ddv_scf|^2 =  7.719E-17

     End of self-consistent calculation

     Convergence has been achieved 


     Representation #  2 mode #   2

     Self-consistent Calculation

      iter #   1 total cpu time :   100.2 secs   av.it.:   2.6
      thresh= 1.000E-02 alpha_mix =  0.300 |ddv_scf|^2 =  2.555E-05

      iter #   2 total cpu time :   100.7 secs   av.it.:   4.3
      thresh= 5.054E-04 alpha_mix =  0.300 |ddv_scf|^2 =  1.114E-05

      iter #   3 total cpu time :   101.2 secs   av.it.:   4.1
      thresh= 3.338E-04 alpha_mix =  0.300 |ddv_scf|^2 =  1.059E-07

      iter #   4 total cpu time :   101.7 secs   av.it.:   4.2
      thresh= 3.255E-05 alpha_mix =  0.300 |ddv_scf|^2 =  1.942E-09

      iter #   5 total cpu time :   102.2 secs   av.it.:   4.2
      thresh= 4.406E-06 alpha_mix =  0.300 |ddv_scf|^2 =  1.697E-10

      iter #   6 total cpu time :   102.8 secs   av.it.:   4.8
      thresh= 1.303E-06 alpha_mix =  0.300 |ddv_scf|^2 =  7.080E-12

      iter #   7 total cpu time :   103.5 secs   av.it.:   4.8
      thresh= 2.661E-07 alpha_mix =  0.300 |ddv_scf|^2 =  1.015E-13

      iter #   8 total cpu time :   104.0 secs   av.it.:   4.3
      thresh= 3.186E-08 alpha_mix =  0.300 |ddv_scf|^2 =  2.501E-14

      iter #   9 total cpu time :   104.6 secs   av.it.:   4.9
      thresh= 1.582E-08 alpha_mix =  0.300 |ddv_scf|^2 =  2.130E-15

      iter #  10 total cpu time :   105.1 secs   av.it.:   4.7
      thresh= 4.615E-09 alpha_mix =  0.300 |ddv_scf|^2 =  1.743E-16

     End of self-consistent calculation

     Convergence has been achieved 


     Representation #  3 mode #   3

     Self-consistent Calculation

      iter #   1 total cpu time :   105.6 secs   av.it.:   2.9
      thresh= 1.000E-02 alpha_mix =  0.300 |ddv_scf|^2 =  2.452E-07

      iter #   2 total cpu time :   106.1 secs   av.it.:   4.9
      thresh= 4.951E-05 alpha_mix =  0.300 |ddv_scf|^2 =  7.401E-08

      iter #   3 total cpu time :   106.7 secs   av.it.:   4.8
      thresh= 2.720E-05 alpha_mix =  0.300 |ddv_scf|^2 =  7.975E-09

      iter #   4 total cpu time :   107.3 secs   av.it.:   5.0
      thresh= 8.930E-06 alpha_mix =  0.300 |ddv_scf|^2 =  6.670E-10

      iter #   5 total cpu time :   107.9 secs   av.it.:   4.9
      thresh= 2.583E-06 alpha_mix =  0.300 |ddv_scf|^2 =  9.293E-12

      iter #   6 total cpu time :   108.5 secs   av.it.:   5.1
      thresh= 3.048E-07 alpha_mix =  0.300 |ddv_scf|^2 =  1.933E-12

      iter #   7 total cpu time :   109.1 secs   av.it.:   5.1
      thresh= 1.390E-07 alpha_mix =  0.300 |ddv_scf|^2 =  1.708E-15

      iter #   8 total cpu time :   109.6 secs   av.it.:   4.5
      thresh= 4.132E-09 alpha_mix =  0.300 |ddv_scf|^2 =  8.501E-16

     End of self-consistent calculation

     Convergence has been achieved 


     Representation #  4 mode #   4

     Self-consistent Calculation

      iter #   1 total cpu time :   110.1 secs   av.it.:   3.1
      thresh= 1.000E-02 alpha_mix =  0.300 |ddv_scf|^2 =  1.113E-04

      iter #   2 total cpu time :   110.7 secs   av.it.:   4.2
      thresh= 1.055E-03 alpha_mix =  0.300 |ddv_scf|^2 =  1.589E-06

      iter #   3 total cpu time :   111.2 secs   av.it.:   4.1
      thresh= 1.260E-04 alpha_mix =  0.300 |ddv_scf|^2 =  2.240E-08

      iter #   4 total cpu time :   111.7 secs   av.it.:   4.7
      thresh= 1.497E-05 alpha_mix =  0.300 |ddv_scf|^2 =  5.603E-10

      iter #   5 total cpu time :   112.2 secs   av.it.:   3.9
      thresh= 2.367E-06 alpha_mix =  0.300 |ddv_scf|^2 =  1.824E-10

      iter #   6 total cpu time :   112.7 secs   av.it.:   4.5
      thresh= 1.351E-06 alpha_mix =  0.300 |ddv_scf|^2 =  5.104E-13

      iter #   7 total cpu time :   113.3 secs   av.it.:   4.9
      thresh= 7.144E-08 alpha_mix =  0.300 |ddv_scf|^2 =  1.252E-14

      iter #   8 total cpu time :   113.9 secs   av.it.:   4.8
      thresh= 1.119E-08 alpha_mix =  0.300 |ddv_scf|^2 =  8.660E-16

     End of self-consistent calculation

     Convergence has been achieved 


     Representation #  5 mode #   5

     Self-consistent Calculation

      iter #   1 total cpu time :   114.4 secs   av.it.:   2.8
      thresh= 1.000E-02 alpha_mix =  0.300 |ddv_scf|^2 =  3.379E-07

      iter #   2 total cpu time :   115.0 secs   av.it.:   4.5
      thresh= 5.813E-05 alpha_mix =  0.300 |ddv_scf|^2 =  1.097E-07

      iter #   3 total cpu time :   115.6 secs   av.it.:   4.8
      thresh= 3.313E-05 alpha_mix =  0.300 |ddv_scf|^2 =  2.755E-09

      iter #   4 total cpu time :   116.1 secs   av.it.:   4.4
      thresh= 5.249E-06 alpha_mix =  0.300 |ddv_scf|^2 =  1.275E-10

      iter #   5 total cpu time :   116.6 secs   av.it.:   4.8
      thresh= 1.129E-06 alpha_mix =  0.300 |ddv_scf|^2 =  1.988E-12

      iter #   6 total cpu time :   117.2 secs   av.it.:   5.1
      thresh= 1.410E-07 alpha_mix =  0.300 |ddv_scf|^2 =  3.509E-14

      iter #   7 total cpu time :   117.8 secs   av.it.:   5.0
      thresh= 1.873E-08 alpha_mix =  0.300 |ddv_scf|^2 =  1.695E-15

      iter #   8 total cpu time :   118.4 secs   av.it.:   4.5
      thresh= 4.117E-09 alpha_mix =  0.300 |ddv_scf|^2 =  1.958E-18

     End of self-consistent calculation

     Convergence has been achieved 


     Representation #  6 mode #   6

     Self-consistent Calculation

      iter #   1 total cpu time :   118.9 secs   av.it.:   2.2
      thresh= 1.000E-02 alpha_mix =  0.300 |ddv_scf|^2 =  3.963E-06

      iter #   2 total cpu time :   119.4 secs   av.it.:   4.0
      thresh= 1.991E-04 alpha_mix =  0.300 |ddv_scf|^2 =  2.285E-07

      iter #   3 total cpu time :   119.9 secs   av.it.:   3.8
      thresh= 4.780E-05 alpha_mix =  0.300 |ddv_scf|^2 =  8.662E-08

      iter #   4 total cpu time :   120.4 secs   av.it.:   4.0
      thresh= 2.943E-05 alpha_mix =  0.300 |ddv_scf|^2 =  1.308E-10

      iter #   5 total cpu time :   120.9 secs   av.it.:   4.5
      thresh= 1.144E-06 alpha_mix =  0.300 |ddv_scf|^2 =  2.930E-11

      iter #   6 total cpu time :   121.6 secs   av.it.:   4.5
      thresh= 5.413E-07 alpha_mix =  0.300 |ddv_scf|^2 =  3.020E-13

      iter #   7 total cpu time :   122.2 secs   av.it.:   4.7
      thresh= 5.495E-08 alpha_mix =  0.300 |ddv_scf|^2 =  1.790E-14

      iter #   8 total cpu time :   122.7 secs   av.it.:   4.7
      thresh= 1.338E-08 alpha_mix =  0.300 |ddv_scf|^2 =  5.193E-16

     End of self-consistent calculation

     Convergence has been achieved 


     Representation #  7 mode #   7

     Self-consistent Calculation

      iter #   1 total cpu time :   123.2 secs   av.it.:   3.1
      thresh= 1.000E-02 alpha_mix =  0.300 |ddv_scf|^2 =  2.563E-06

      iter #   2 total cpu time :   123.8 secs   av.it.:   4.8
      thresh= 1.601E-04 alpha_mix =  0.300 |ddv_scf|^2 =  3.624E-07

      iter #   3 total cpu time :   124.4 secs   av.it.:   4.8
      thresh= 6.020E-05 alpha_mix =  0.300 |ddv_scf|^2 =  2.577E-08

      iter #   4 total cpu time :   124.9 secs   av.it.:   5.1
      thresh= 1.605E-05 alpha_mix =  0.300 |ddv_scf|^2 =  1.424E-09

      iter #   5 total cpu time :   125.5 secs   av.it.:   4.6
      thresh= 3.774E-06 alpha_mix =  0.300 |ddv_scf|^2 =  5.613E-11

      iter #   6 total cpu time :   126.1 secs   av.it.:   4.9
      thresh= 7.492E-07 alpha_mix =  0.300 |ddv_scf|^2 =  2.034E-12

      iter #   7 total cpu time :   126.7 secs   av.it.:   5.1
      thresh= 1.426E-07 alpha_mix =  0.300 |ddv_scf|^2 =  2.532E-15

      iter #   8 total cpu time :   127.3 secs   av.it.:   4.8
      thresh= 5.032E-09 alpha_mix =  0.300 |ddv_scf|^2 =  1.179E-15

      iter #   9 total cpu time :   127.9 secs   av.it.:   4.7
      thresh= 3.433E-09 alpha_mix =  0.300 |ddv_scf|^2 =  1.652E-18

     End of self-consistent calculation

     Convergence has been achieved 


     Representation #  8 mode #   8

     Self-consistent Calculation

      iter #   1 total cpu time :   128.4 secs   av.it.:   3.2
      thresh= 1.000E-02 alpha_mix =  0.300 |ddv_scf|^2 =  6.177E-05

      iter #   2 total cpu time :   128.9 secs   av.it.:   4.4
      thresh= 7.860E-04 alpha_mix =  0.300 |ddv_scf|^2 =  2.405E-05

      iter #   3 total cpu time :   129.4 secs   av.it.:   4.2
      thresh= 4.904E-04 alpha_mix =  0.300 |ddv_scf|^2 =  1.680E-07

      iter #   4 total cpu time :   130.0 secs   av.it.:   4.9
      thresh= 4.098E-05 alpha_mix =  0.300 |ddv_scf|^2 =  4.208E-09

      iter #   5 total cpu time :   130.5 secs   av.it.:   4.3
      thresh= 6.487E-06 alpha_mix =  0.300 |ddv_scf|^2 =  1.429E-09

      iter #   6 total cpu time :   131.0 secs   av.it.:   4.7
      thresh= 3.781E-06 alpha_mix =  0.300 |ddv_scf|^2 =  1.255E-11

      iter #   7 total cpu time :   131.7 secs   av.it.:   5.2
      thresh= 3.543E-07 alpha_mix =  0.300 |ddv_scf|^2 =  2.188E-13

      iter #   8 total cpu time :   132.3 secs   av.it.:   4.9
      thresh= 4.677E-08 alpha_mix =  0.300 |ddv_scf|^2 =  9.154E-14

      iter #   9 total cpu time :   132.8 secs   av.it.:   4.2
      thresh= 3.026E-08 alpha_mix =  0.300 |ddv_scf|^2 =  1.144E-14

      iter #  10 total cpu time :   133.4 secs   av.it.:   4.7
      thresh= 1.070E-08 alpha_mix =  0.300 |ddv_scf|^2 =  7.235E-15

      iter #  11 total cpu time :   133.9 secs   av.it.:   4.8
      thresh= 8.506E-09 alpha_mix =  0.300 |ddv_scf|^2 =  1.144E-16

     End of self-consistent calculation

     Convergence has been achieved 


     Representation #  9 mode #   9

     Self-consistent Calculation

      iter #   1 total cpu time :   134.3 secs   av.it.:   1.9
      thresh= 1.000E-02 alpha_mix =  0.300 |ddv_scf|^2 =  3.384E-07

      iter #   2 total cpu time :   134.8 secs   av.it.:   3.7
      thresh= 5.817E-05 alpha_mix =  0.300 |ddv_scf|^2 =  1.649E-07

      iter #   3 total cpu time :   135.3 secs   av.it.:   3.9
      thresh= 4.060E-05 alpha_mix =  0.300 |ddv_scf|^2 =  2.233E-10

      iter #   4 total cpu time :   135.8 secs   av.it.:   4.8
      thresh= 1.494E-06 alpha_mix =  0.300 |ddv_scf|^2 =  2.754E-11

      iter #   5 total cpu time :   136.4 secs   av.it.:   4.6
      thresh= 5.248E-07 alpha_mix =  0.300 |ddv_scf|^2 =  2.197E-12

      iter #   6 total cpu time :   137.0 secs   av.it.:   4.8
      thresh= 1.482E-07 alpha_mix =  0.300 |ddv_scf|^2 =  2.647E-14

      iter #   7 total cpu time :   137.5 secs   av.it.:   4.7
      thresh= 1.627E-08 alpha_mix =  0.300 |ddv_scf|^2 =  4.503E-15

      iter #   8 total cpu time :   138.1 secs   av.it.:   4.7
      thresh= 6.711E-09 alpha_mix =  0.300 |ddv_scf|^2 =  5.657E-17

     End of self-consistent calculation

     Convergence has been achieved 

     Number of q in the star =    6
     List of q in the star:
          1   0.125000000   0.216506381  -0.437459078
          2  -0.125000000   0.216506381  -0.437459078
          3   0.250000000   0.000000000  -0.437459078
          4  -0.250000000  -0.000000000  -0.437459078
          5   0.125000000  -0.216506381  -0.437459078
          6  -0.125000000  -0.216506381   0.437459078

     Diagonalizing the dynamical matrix

     q = (    0.125000000   0.216506381  -0.437459078 ) 

 **************************************************************************
     freq (    1) =       7.194649 [THz] =     239.987661 [cm-1]
     freq (    2) =       7.471464 [THz] =     249.221213 [cm-1]
     freq (    3) =       8.510542 [THz] =     283.881139 [cm-1]
     freq (    4) =      11.281571 [THz] =     376.312705 [cm-1]
     freq (    5) =      12.281707 [THz] =     409.673661 [cm-1]
     freq (    6) =      13.662244 [THz] =     455.723406 [cm-1]
     freq (    7) =      18.946851 [THz] =     631.998924 [cm-1]
     freq (    8) =      19.046899 [THz] =     635.336160 [cm-1]
     freq (    9) =      21.452641 [THz] =     715.583082 [cm-1]
 **************************************************************************

     Calculation of q =    0.1250000   0.5051816   0.1458197
     [opt_tetra]  Optimized tetrahedron method is used.

     G-vector sticks info
     --------------------
     sticks:   dense  smooth     PW     G-vecs:    dense   smooth      PW
     Sum         559     559    199                12183    12183    2473


     Title: 
     Phonon                                                                     


     bravais-lattice index     =            0
     lattice parameter (alat)  =       5.8057  a.u.
     unit-cell volume          =     193.7024 (a.u.)^3
     number of atoms/cell      =            3
     number of atomic types    =            2
     number of electrons       =         8.00
     number of Kohn-Sham states=            8
     kinetic-energy cutoff     =      60.0000  Ry
     charge density cutoff     =     240.0000  Ry
     Exchange-correlation= PBE
                           (   1   4   3   4   0   0   0)

     celldm(1)=   5.805736  celldm(2)=   0.000000  celldm(3)=   0.000000
     celldm(4)=   0.000000  celldm(5)=   0.000000  celldm(6)=   0.000000

     crystal axes: (cart. coord. in units of alat)
               a(1) = (   1.000000   0.000000   0.000000 )  
               a(2) = (  -0.500000   0.866025   0.000000 )  
               a(3) = (   0.000000   0.000000   1.142964 )  

     reciprocal axes: (cart. coord. in units 2 pi/alat)
               b(1) = (  1.000000  0.577350 -0.000000 )  
               b(2) = (  0.000000  1.154701  0.000000 )  
               b(3) = (  0.000000 -0.000000  0.874918 )  


     PseudoPot. # 1 for B  read from file:
     ./B.pbe-nc.UPF
     MD5 check sum: 75cd07c0a87b9b912465967514cf4679
     Pseudo is Norm-conserving, Zval =  3.0
     Generated using "atomic" code by A. Dal Corso v.5.0.99 svn rev. 10869
     Using radial grid of 1059 points,  1 beta functions with: 
                l(1) =   1

     PseudoPot. # 2 for Mg read from file:
     ./Mg.pbe-n-nc.UPF
     MD5 check sum: fdc482938bc77a1b5407024e0eeca3bc
     Pseudo is Norm-conserving + core correction, Zval =  2.0
     Generated using "atomic" code by A. Dal Corso v.5.0.99 svn rev. 10869
     Using radial grid of 1129 points,  2 beta functions with: 
                l(1) =   0
                l(2) =   1

     atomic species   valence    mass     pseudopotential
        B              3.00    10.81100     B ( 1.00)
        Mg             2.00    24.30500     Mg( 1.00)

     24 Sym. Ops., with inversion, found



   Cartesian axes

     site n.     atom                  positions (alat units)
         1           Mg  tau(   1) = (   0.0000000   0.0000000   0.0000000  )
         2           B   tau(   2) = (  -0.0000005   0.5773505   0.5714820  )
         3           B   tau(   3) = (   0.5000005   0.2886748   0.5714820  )

     number of k points=   768 (tetrahedron method)

     Number of k-points >= 100: set verbosity='high' to print them.

     Dense  grid:    12183 G-vectors     FFT dimensions: (  30,  30,  36)

     Estimated max dynamical RAM per process >       6.46 MB

     Estimated total dynamical RAM >     206.59 MB

     The potential is recalculated from file :
     ./_ph0/pwscf.q_3/pwscf.save/charge-density

     Starting wfcs are   12 atomic wfcs

     Band Structure Calculation
     Davidson diagonalization with overlap

     ethr =  1.25E-10,  avg # of iterations = 17.6

     total cpu time spent up to now is       13.9 secs

     End of band structure calculation

     Number of k-points >= 100: set verbosity='high' to print the bands.

     the Fermi energy is     7.6693 ev

     Writing output data file ./_ph0/pwscf.q_3/pwscf.save/
 
     [dfpt_tetra]  Dos(E_F)[/Ry] :   0.8946587E+01

     Phonon                                                                     

     bravais-lattice index     =            0
     lattice parameter (alat)  =       5.8057  a.u.
     unit-cell volume          =     193.7024 (a.u.)^3
     number of atoms/cell      =            3
     number of atomic types    =            2
     kinetic-energy cut-off    =      60.0000  Ry
     charge density cut-off    =     240.0000  Ry
     convergence threshold     =      1.0E-15
     beta                      =       0.3000
     number of iterations used =            4
     Exchange-correlation= PBE
                           (   1   4   3   4   0   0   0)


     celldm(1)=    5.80574  celldm(2)=    0.00000  celldm(3)=    0.00000
     celldm(4)=    0.00000  celldm(5)=    0.00000  celldm(6)=    0.00000

     crystal axes: (cart. coord. in units of alat)
               a(1) = (  1.0000  0.0000  0.0000 )  
               a(2) = ( -0.5000  0.8660  0.0000 )  
               a(3) = (  0.0000  0.0000  1.1430 )  

     reciprocal axes: (cart. coord. in units 2 pi/alat)
               b(1) = (  1.0000  0.5774 -0.0000 )  
               b(2) = (  0.0000  1.1547  0.0000 )  
               b(3) = (  0.0000 -0.0000  0.8749 )  


     Atoms inside the unit cell: 

     Cartesian axes

     site n.  atom      mass           positions (alat units)
        1     Mg  24.3050   tau(    1) = (    0.00000    0.00000    0.00000  )
        2     B   10.8110   tau(    2) = (   -0.00000    0.57735    0.57148  )
        3     B   10.8110   tau(    3) = (    0.50000    0.28867    0.57148  )

     Computing dynamical matrix for 
                    q = (   0.1250000   0.5051816   0.1458197 )

     No symmetry!

     G cutoff =  204.9114  (  12183 G-vectors)     FFT grid: ( 30, 30, 36)
     number of k points=   768

     PseudoPot. # 1 for B  read from file:
     ./B.pbe-nc.UPF
     MD5 check sum: 75cd07c0a87b9b912465967514cf4679
     Pseudo is Norm-conserving, Zval =  3.0
     Generated using "atomic" code by A. Dal Corso v.5.0.99 svn rev. 10869
     Using radial grid of 1059 points,  1 beta functions with: 
                l(1) =   1

     PseudoPot. # 2 for Mg read from file:
     ./Mg.pbe-n-nc.UPF
     MD5 check sum: fdc482938bc77a1b5407024e0eeca3bc
     Pseudo is Norm-conserving + core correction, Zval =  2.0
     Generated using "atomic" code by A. Dal Corso v.5.0.99 svn rev. 10869
     Using radial grid of 1129 points,  2 beta functions with: 
                l(1) =   0
                l(2) =   1


     Atomic displacements:
     There are   9 irreducible representations

     Representation     1      1 modes -  To be done

     Representation     2      1 modes -  To be done

     Representation     3      1 modes -  To be done

     Representation     4      1 modes -  To be done

     Representation     5      1 modes -  To be done

     Representation     6      1 modes -  To be done

     Representation     7      1 modes -  To be done

     Representation     8      1 modes -  To be done

     Representation     9      1 modes -  To be done



     Alpha used in Ewald sum =   2.5000
     PHONON       :   2m 9.65s CPU   2m26.89s WALL



     Representation #  1 mode #   1

     Self-consistent Calculation

      iter #   1 total cpu time :   148.0 secs   av.it.:   3.3
      thresh= 1.000E-02 alpha_mix =  0.300 |ddv_scf|^2 =  3.429E-05

      iter #   2 total cpu time :   149.3 secs   av.it.:   4.8
      thresh= 5.856E-04 alpha_mix =  0.300 |ddv_scf|^2 =  2.084E-06

      iter #   3 total cpu time :   150.5 secs   av.it.:   4.7
      thresh= 1.444E-04 alpha_mix =  0.300 |ddv_scf|^2 =  6.767E-08

      iter #   4 total cpu time :   151.8 secs   av.it.:   5.0
      thresh= 2.601E-05 alpha_mix =  0.300 |ddv_scf|^2 =  1.519E-08

      iter #   5 total cpu time :   153.3 secs   av.it.:   5.3
      thresh= 1.233E-05 alpha_mix =  0.300 |ddv_scf|^2 =  1.447E-09

      iter #   6 total cpu time :   154.6 secs   av.it.:   5.2
      thresh= 3.804E-06 alpha_mix =  0.300 |ddv_scf|^2 =  7.198E-11

      iter #   7 total cpu time :   155.8 secs   av.it.:   4.7
      thresh= 8.484E-07 alpha_mix =  0.300 |ddv_scf|^2 =  1.865E-11

      iter #   8 total cpu time :   157.2 secs   av.it.:   5.2
      thresh= 4.319E-07 alpha_mix =  0.300 |ddv_scf|^2 =  3.689E-13

      iter #   9 total cpu time :   158.5 secs   av.it.:   5.5
      thresh= 6.074E-08 alpha_mix =  0.300 |ddv_scf|^2 =  5.666E-14

      iter #  10 total cpu time :   159.9 secs   av.it.:   5.3
      thresh= 2.380E-08 alpha_mix =  0.300 |ddv_scf|^2 =  4.931E-15

      iter #  11 total cpu time :   161.2 secs   av.it.:   5.0
      thresh= 7.022E-09 alpha_mix =  0.300 |ddv_scf|^2 =  1.155E-15

      iter #  12 total cpu time :   162.7 secs   av.it.:   5.3
      thresh= 3.399E-09 alpha_mix =  0.300 |ddv_scf|^2 =  1.441E-16

     End of self-consistent calculation

     Convergence has been achieved 


     Representation #  2 mode #   2

     Self-consistent Calculation

      iter #   1 total cpu time :   163.6 secs   av.it.:   2.1
      thresh= 1.000E-02 alpha_mix =  0.300 |ddv_scf|^2 =  8.152E-07

      iter #   2 total cpu time :   164.8 secs   av.it.:   4.5
      thresh= 9.029E-05 alpha_mix =  0.300 |ddv_scf|^2 =  1.935E-07

      iter #   3 total cpu time :   166.0 secs   av.it.:   4.1
      thresh= 4.399E-05 alpha_mix =  0.300 |ddv_scf|^2 =  8.516E-08

      iter #   4 total cpu time :   167.2 secs   av.it.:   4.4
      thresh= 2.918E-05 alpha_mix =  0.300 |ddv_scf|^2 =  2.548E-09

      iter #   5 total cpu time :   168.4 secs   av.it.:   4.5
      thresh= 5.048E-06 alpha_mix =  0.300 |ddv_scf|^2 =  1.715E-10

      iter #   6 total cpu time :   169.8 secs   av.it.:   5.2
      thresh= 1.309E-06 alpha_mix =  0.300 |ddv_scf|^2 =  9.489E-12

      iter #   7 total cpu time :   171.0 secs   av.it.:   4.8
      thresh= 3.080E-07 alpha_mix =  0.300 |ddv_scf|^2 =  2.247E-12

      iter #   8 total cpu time :   172.4 secs   av.it.:   4.9
      thresh= 1.499E-07 alpha_mix =  0.300 |ddv_scf|^2 =  1.841E-13

      iter #   9 total cpu time :   173.7 secs   av.it.:   5.0
      thresh= 4.291E-08 alpha_mix =  0.300 |ddv_scf|^2 =  8.067E-15

      iter #  10 total cpu time :   174.9 secs   av.it.:   4.5
      thresh= 8.982E-09 alpha_mix =  0.300 |ddv_scf|^2 =  2.594E-15

      iter #  11 total cpu time :   176.1 secs   av.it.:   4.8
      thresh= 5.093E-09 alpha_mix =  0.300 |ddv_scf|^2 =  8.508E-16

     End of self-consistent calculation

     Convergence has been achieved 


     Representation #  3 mode #   3

     Self-consistent Calculation

      iter #   1 total cpu time :   177.3 secs   av.it.:   3.2
      thresh= 1.000E-02 alpha_mix =  0.300 |ddv_scf|^2 =  3.830E-06

      iter #   2 total cpu time :   178.7 secs   av.it.:   5.0
      thresh= 1.957E-04 alpha_mix =  0.300 |ddv_scf|^2 =  3.710E-07

      iter #   3 total cpu time :   180.0 secs   av.it.:   4.9
      thresh= 6.091E-05 alpha_mix =  0.300 |ddv_scf|^2 =  4.872E-08

      iter #   4 total cpu time :   181.3 secs   av.it.:   5.2
      thresh= 2.207E-05 alpha_mix =  0.300 |ddv_scf|^2 =  7.343E-09

      iter #   5 total cpu time :   182.7 secs   av.it.:   5.1
      thresh= 8.569E-06 alpha_mix =  0.300 |ddv_scf|^2 =  2.017E-09

      iter #   6 total cpu time :   184.0 secs   av.it.:   5.1
      thresh= 4.491E-06 alpha_mix =  0.300 |ddv_scf|^2 =  1.463E-10

      iter #   7 total cpu time :   185.3 secs   av.it.:   4.9
      thresh= 1.210E-06 alpha_mix =  0.300 |ddv_scf|^2 =  2.224E-11

      iter #   8 total cpu time :   186.6 secs   av.it.:   5.2
      thresh= 4.716E-07 alpha_mix =  0.300 |ddv_scf|^2 =  4.390E-13

      iter #   9 total cpu time :   188.0 secs   av.it.:   5.5
      thresh= 6.625E-08 alpha_mix =  0.300 |ddv_scf|^2 =  5.508E-14

      iter #  10 total cpu time :   189.4 secs   av.it.:   5.3
      thresh= 2.347E-08 alpha_mix =  0.300 |ddv_scf|^2 =  6.433E-15

      iter #  11 total cpu time :   190.8 secs   av.it.:   5.2
      thresh= 8.021E-09 alpha_mix =  0.300 |ddv_scf|^2 =  1.250E-15

      iter #  12 total cpu time :   192.1 secs   av.it.:   5.4
      thresh= 3.536E-09 alpha_mix =  0.300 |ddv_scf|^2 =  1.104E-16

     End of self-consistent calculation

     Convergence has been achieved 


     Representation #  4 mode #   4

     Self-consistent Calculation

      iter #   1 total cpu time :   193.2 secs   av.it.:   3.2
      thresh= 1.000E-02 alpha_mix =  0.300 |ddv_scf|^2 =  5.670E-06

      iter #   2 total cpu time :   194.6 secs   av.it.:   5.0
      thresh= 2.381E-04 alpha_mix =  0.300 |ddv_scf|^2 =  5.024E-07

      iter #   3 total cpu time :   195.9 secs   av.it.:   4.9
      thresh= 7.088E-05 alpha_mix =  0.300 |ddv_scf|^2 =  9.060E-08

      iter #   4 total cpu time :   197.2 secs   av.it.:   5.2
      thresh= 3.010E-05 alpha_mix =  0.300 |ddv_scf|^2 =  8.477E-09

      iter #   5 total cpu time :   198.6 secs   av.it.:   5.3
      thresh= 9.207E-06 alpha_mix =  0.300 |ddv_scf|^2 =  1.720E-09

      iter #   6 total cpu time :   199.9 secs   av.it.:   5.2
      thresh= 4.147E-06 alpha_mix =  0.300 |ddv_scf|^2 =  8.874E-11

      iter #   7 total cpu time :   201.2 secs   av.it.:   4.9
      thresh= 9.420E-07 alpha_mix =  0.300 |ddv_scf|^2 =  1.658E-11

      iter #   8 total cpu time :   202.5 secs   av.it.:   5.3
      thresh= 4.072E-07 alpha_mix =  0.300 |ddv_scf|^2 =  4.133E-13

      iter #   9 total cpu time :   203.9 secs   av.it.:   5.5
      thresh= 6.429E-08 alpha_mix =  0.300 |ddv_scf|^2 =  2.422E-14

      iter #  10 total cpu time :   205.4 secs   av.it.:   5.3
      thresh= 1.556E-08 alpha_mix =  0.300 |ddv_scf|^2 =  4.560E-15

      iter #  11 total cpu time :   206.7 secs   av.it.:   5.0
      thresh= 6.753E-09 alpha_mix =  0.300 |ddv_scf|^2 =  9.042E-16

     End of self-consistent calculation

     Convergence has been achieved 


     Representation #  5 mode #   5

     Self-consistent Calculation

      iter #   1 total cpu time :   207.8 secs   av.it.:   3.2
      thresh= 1.000E-02 alpha_mix =  0.300 |ddv_scf|^2 =  6.263E-06

      iter #   2 total cpu time :   209.1 secs   av.it.:   5.0
      thresh= 2.503E-04 alpha_mix =  0.300 |ddv_scf|^2 =  5.936E-07

      iter #   3 total cpu time :   210.4 secs   av.it.:   4.9
      thresh= 7.704E-05 alpha_mix =  0.300 |ddv_scf|^2 =  1.025E-07

      iter #   4 total cpu time :   211.8 secs   av.it.:   5.2
      thresh= 3.202E-05 alpha_mix =  0.300 |ddv_scf|^2 =  5.004E-09

      iter #   5 total cpu time :   213.1 secs   av.it.:   5.1
      thresh= 7.074E-06 alpha_mix =  0.300 |ddv_scf|^2 =  1.463E-09

      iter #   6 total cpu time :   214.5 secs   av.it.:   5.2
      thresh= 3.825E-06 alpha_mix =  0.300 |ddv_scf|^2 =  8.451E-11

      iter #   7 total cpu time :   215.8 secs   av.it.:   4.9
      thresh= 9.193E-07 alpha_mix =  0.300 |ddv_scf|^2 =  1.099E-11

      iter #   8 total cpu time :   217.1 secs   av.it.:   5.3
      thresh= 3.316E-07 alpha_mix =  0.300 |ddv_scf|^2 =  3.047E-13

      iter #   9 total cpu time :   218.5 secs   av.it.:   5.4
      thresh= 5.520E-08 alpha_mix =  0.300 |ddv_scf|^2 =  2.917E-14

      iter #  10 total cpu time :   220.0 secs   av.it.:   5.4
      thresh= 1.708E-08 alpha_mix =  0.300 |ddv_scf|^2 =  3.069E-15

      iter #  11 total cpu time :   221.4 secs   av.it.:   5.0
      thresh= 5.540E-09 alpha_mix =  0.300 |ddv_scf|^2 =  6.986E-16

     End of self-consistent calculation

     Convergence has been achieved 


     Representation #  6 mode #   6

     Self-consistent Calculation

      iter #   1 total cpu time :   222.5 secs   av.it.:   2.7
      thresh= 1.000E-02 alpha_mix =  0.300 |ddv_scf|^2 =  7.171E-06

      iter #   2 total cpu time :   223.8 secs   av.it.:   4.6
      thresh= 2.678E-04 alpha_mix =  0.300 |ddv_scf|^2 =  6.749E-07

      iter #   3 total cpu time :   225.0 secs   av.it.:   4.5
      thresh= 8.215E-05 alpha_mix =  0.300 |ddv_scf|^2 =  9.094E-08

      iter #   4 total cpu time :   226.2 secs   av.it.:   4.2
      thresh= 3.016E-05 alpha_mix =  0.300 |ddv_scf|^2 =  1.660E-08

      iter #   5 total cpu time :   227.3 secs   av.it.:   4.3
      thresh= 1.288E-05 alpha_mix =  0.300 |ddv_scf|^2 =  4.968E-10

      iter #   6 total cpu time :   228.7 secs   av.it.:   5.1
      thresh= 2.229E-06 alpha_mix =  0.300 |ddv_scf|^2 =  6.204E-12

      iter #   7 total cpu time :   229.9 secs   av.it.:   4.5
      thresh= 2.491E-07 alpha_mix =  0.300 |ddv_scf|^2 =  2.821E-12

      iter #   8 total cpu time :   231.2 secs   av.it.:   4.9
      thresh= 1.679E-07 alpha_mix =  0.300 |ddv_scf|^2 =  5.230E-14

      iter #   9 total cpu time :   232.5 secs   av.it.:   5.1
      thresh= 2.287E-08 alpha_mix =  0.300 |ddv_scf|^2 =  5.301E-15

      iter #  10 total cpu time :   233.9 secs   av.it.:   5.1
      thresh= 7.281E-09 alpha_mix =  0.300 |ddv_scf|^2 =  5.353E-16

     End of self-consistent calculation

     Convergence has been achieved 


     Representation #  7 mode #   7

     Self-consistent Calculation

      iter #   1 total cpu time :   235.2 secs   av.it.:   3.2
      thresh= 1.000E-02 alpha_mix =  0.300 |ddv_scf|^2 =  7.987E-06

      iter #   2 total cpu time :   236.5 secs   av.it.:   4.9
      thresh= 2.826E-04 alpha_mix =  0.300 |ddv_scf|^2 =  5.731E-07

      iter #   3 total cpu time :   237.8 secs   av.it.:   4.9
      thresh= 7.570E-05 alpha_mix =  0.300 |ddv_scf|^2 =  1.040E-07

      iter #   4 total cpu time :   239.1 secs   av.it.:   5.1
      thresh= 3.225E-05 alpha_mix =  0.300 |ddv_scf|^2 =  8.458E-09

      iter #   5 total cpu time :   240.5 secs   av.it.:   5.1
      thresh= 9.197E-06 alpha_mix =  0.300 |ddv_scf|^2 =  2.000E-09

      iter #   6 total cpu time :   241.8 secs   av.it.:   5.2
      thresh= 4.472E-06 alpha_mix =  0.300 |ddv_scf|^2 =  1.353E-10

      iter #   7 total cpu time :   243.1 secs   av.it.:   5.0
      thresh= 1.163E-06 alpha_mix =  0.300 |ddv_scf|^2 =  1.338E-11

      iter #   8 total cpu time :   244.5 secs   av.it.:   5.3
      thresh= 3.658E-07 alpha_mix =  0.300 |ddv_scf|^2 =  3.983E-13

      iter #   9 total cpu time :   245.8 secs   av.it.:   5.6
      thresh= 6.311E-08 alpha_mix =  0.300 |ddv_scf|^2 =  2.127E-14

      iter #  10 total cpu time :   247.2 secs   av.it.:   5.4
      thresh= 1.458E-08 alpha_mix =  0.300 |ddv_scf|^2 =  2.608E-15

      iter #  11 total cpu time :   248.7 secs   av.it.:   5.1
      thresh= 5.107E-09 alpha_mix =  0.300 |ddv_scf|^2 =  6.925E-16

     End of self-consistent calculation

     Convergence has been achieved 


     Representation #  8 mode #   8

     Self-consistent Calculation

      iter #   1 total cpu time :   249.7 secs   av.it.:   2.1
      thresh= 1.000E-02 alpha_mix =  0.300 |ddv_scf|^2 =  1.162E-06

      iter #   2 total cpu time :   250.9 secs   av.it.:   4.6
      thresh= 1.078E-04 alpha_mix =  0.300 |ddv_scf|^2 =  2.164E-07

      iter #   3 total cpu time :   252.1 secs   av.it.:   4.2
      thresh= 4.652E-05 alpha_mix =  0.300 |ddv_scf|^2 =  8.837E-08

      iter #   4 total cpu time :   253.3 secs   av.it.:   4.2
      thresh= 2.973E-05 alpha_mix =  0.300 |ddv_scf|^2 =  5.037E-09

      iter #   5 total cpu time :   254.5 secs   av.it.:   4.3
      thresh= 7.097E-06 alpha_mix =  0.300 |ddv_scf|^2 =  1.210E-10

      iter #   6 total cpu time :   255.8 secs   av.it.:   5.2
      thresh= 1.100E-06 alpha_mix =  0.300 |ddv_scf|^2 =  9.580E-12

      iter #   7 total cpu time :   257.0 secs   av.it.:   4.6
      thresh= 3.095E-07 alpha_mix =  0.300 |ddv_scf|^2 =  3.465E-12

      iter #   8 total cpu time :   258.6 secs   av.it.:   5.0
      thresh= 1.861E-07 alpha_mix =  0.300 |ddv_scf|^2 =  1.179E-13

      iter #   9 total cpu time :   260.0 secs   av.it.:   5.1
      thresh= 3.434E-08 alpha_mix =  0.300 |ddv_scf|^2 =  6.211E-15

      iter #  10 total cpu time :   261.3 secs   av.it.:   5.1
      thresh= 7.881E-09 alpha_mix =  0.300 |ddv_scf|^2 =  1.236E-15

      iter #  11 total cpu time :   262.5 secs   av.it.:   4.8
      thresh= 3.516E-09 alpha_mix =  0.300 |ddv_scf|^2 =  4.442E-16

     End of self-consistent calculation

     Convergence has been achieved 


     Representation #  9 mode #   9

     Self-consistent Calculation

      iter #   1 total cpu time :   263.8 secs   av.it.:   3.2
      thresh= 1.000E-02 alpha_mix =  0.300 |ddv_scf|^2 =  3.785E-05

      iter #   2 total cpu time :   265.1 secs   av.it.:   4.8
      thresh= 6.152E-04 alpha_mix =  0.300 |ddv_scf|^2 =  2.190E-06

      iter #   3 total cpu time :   266.4 secs   av.it.:   4.7
      thresh= 1.480E-04 alpha_mix =  0.300 |ddv_scf|^2 =  8.469E-08

      iter #   4 total cpu time :   267.6 secs   av.it.:   4.9
      thresh= 2.910E-05 alpha_mix =  0.300 |ddv_scf|^2 =  1.371E-08

      iter #   5 total cpu time :   269.1 secs   av.it.:   5.2
      thresh= 1.171E-05 alpha_mix =  0.300 |ddv_scf|^2 =  2.148E-09

      iter #   6 total cpu time :   270.4 secs   av.it.:   5.1
      thresh= 4.635E-06 alpha_mix =  0.300 |ddv_scf|^2 =  7.798E-11

      iter #   7 total cpu time :   271.6 secs   av.it.:   4.7
      thresh= 8.831E-07 alpha_mix =  0.300 |ddv_scf|^2 =  2.162E-11

      iter #   8 total cpu time :   272.9 secs   av.it.:   5.2
      thresh= 4.649E-07 alpha_mix =  0.300 |ddv_scf|^2 =  4.389E-13

      iter #   9 total cpu time :   274.4 secs   av.it.:   5.6
      thresh= 6.625E-08 alpha_mix =  0.300 |ddv_scf|^2 =  6.266E-14

      iter #  10 total cpu time :   275.7 secs   av.it.:   5.3
      thresh= 2.503E-08 alpha_mix =  0.300 |ddv_scf|^2 =  6.489E-15

      iter #  11 total cpu time :   277.1 secs   av.it.:   5.2
      thresh= 8.055E-09 alpha_mix =  0.300 |ddv_scf|^2 =  1.576E-15

      iter #  12 total cpu time :   278.4 secs   av.it.:   5.4
      thresh= 3.970E-09 alpha_mix =  0.300 |ddv_scf|^2 =  1.931E-16

     End of self-consistent calculation

     Convergence has been achieved 

     Number of q in the star =   24
     List of q in the star:
          1   0.125000000   0.505181556   0.145819693
          2   0.375000000   0.360843969   0.145819693
          3   0.125000000   0.505181556  -0.145819693
          4   0.375000000   0.360843969  -0.145819693
          5  -0.375000000   0.360843968   0.145819693
          6   0.500000000   0.144337588   0.145819693
          7  -0.500000000  -0.144337588   0.145819693
          8   0.375000000  -0.360843968   0.145819693
          9  -0.375000000  -0.360843969  -0.145819693
         10   0.500000000  -0.144337587  -0.145819693
         11  -0.500000000   0.144337587  -0.145819693
         12  -0.125000000   0.505181556  -0.145819693
         13  -0.125000000  -0.505181556  -0.145819693
         14   0.125000000  -0.505181556  -0.145819693
         15   0.125000000  -0.505181556   0.145819693
         16  -0.125000000   0.505181556   0.145819693
         17   0.375000000  -0.360843968  -0.145819693
         18  -0.500000000  -0.144337588  -0.145819693
         19   0.500000000   0.144337588  -0.145819693
         20  -0.375000000   0.360843968  -0.145819693
         21  -0.125000000  -0.505181556   0.145819693
         22  -0.500000000   0.144337587   0.145819693
         23   0.500000000  -0.144337587   0.145819693
         24  -0.375000000  -0.360843969   0.145819693

     Diagonalizing the dynamical matrix

     q = (    0.125000000   0.505181556   0.145819693 ) 

 **************************************************************************
     freq (    1) =       7.753616 [THz] =     258.632795 [cm-1]
     freq (    2) =       7.797000 [THz] =     260.079940 [cm-1]
     freq (    3) =       9.441899 [THz] =     314.947839 [cm-1]
     freq (    4) =      12.757316 [THz] =     425.538259 [cm-1]
     freq (    5) =      15.320391 [THz] =     511.033242 [cm-1]
     freq (    6) =      16.116782 [THz] =     537.597993 [cm-1]
     freq (    7) =      20.931783 [THz] =     698.209120 [cm-1]
     freq (    8) =      22.530507 [THz] =     751.536832 [cm-1]
     freq (    9) =      23.393477 [THz] =     780.322405 [cm-1]
 **************************************************************************

     Calculation of q =    0.1250000   0.5051816  -0.4374591
     [opt_tetra]  Optimized tetrahedron method is used.

     G-vector sticks info
     --------------------
     sticks:   dense  smooth     PW     G-vecs:    dense   smooth      PW
     Sum         559     559    199                12183    12183    2617


     Title: 
     Phonon                                                                     


     bravais-lattice index     =            0
     lattice parameter (alat)  =       5.8057  a.u.
     unit-cell volume          =     193.7024 (a.u.)^3
     number of atoms/cell      =            3
     number of atomic types    =            2
     number of electrons       =         8.00
     number of Kohn-Sham states=            8
     kinetic-energy cutoff     =      60.0000  Ry
     charge density cutoff     =     240.0000  Ry
     Exchange-correlation= PBE
                           (   1   4   3   4   0   0   0)

     celldm(1)=   5.805736  celldm(2)=   0.000000  celldm(3)=   0.000000
     celldm(4)=   0.000000  celldm(5)=   0.000000  celldm(6)=   0.000000

     crystal axes: (cart. coord. in units of alat)
               a(1) = (   1.000000   0.000000   0.000000 )  
               a(2) = (  -0.500000   0.866025   0.000000 )  
               a(3) = (   0.000000   0.000000   1.142964 )  

     reciprocal axes: (cart. coord. in units 2 pi/alat)
               b(1) = (  1.000000  0.577350 -0.000000 )  
               b(2) = (  0.000000  1.154701  0.000000 )  
               b(3) = (  0.000000 -0.000000  0.874918 )  


     PseudoPot. # 1 for B  read from file:
     ./B.pbe-nc.UPF
     MD5 check sum: 75cd07c0a87b9b912465967514cf4679
     Pseudo is Norm-conserving, Zval =  3.0
     Generated using "atomic" code by A. Dal Corso v.5.0.99 svn rev. 10869
     Using radial grid of 1059 points,  1 beta functions with: 
                l(1) =   1

     PseudoPot. # 2 for Mg read from file:
     ./Mg.pbe-n-nc.UPF
     MD5 check sum: fdc482938bc77a1b5407024e0eeca3bc
     Pseudo is Norm-conserving + core correction, Zval =  2.0
     Generated using "atomic" code by A. Dal Corso v.5.0.99 svn rev. 10869
     Using radial grid of 1129 points,  2 beta functions with: 
                l(1) =   0
                l(2) =   1

     atomic species   valence    mass     pseudopotential
        B              3.00    10.81100     B ( 1.00)
        Mg             2.00    24.30500     Mg( 1.00)

     24 Sym. Ops., with inversion, found



   Cartesian axes

     site n.     atom                  positions (alat units)
         1           Mg  tau(   1) = (   0.0000000   0.0000000   0.0000000  )
         2           B   tau(   2) = (  -0.0000005   0.5773505   0.5714820  )
         3           B   tau(   3) = (   0.5000005   0.2886748   0.5714820  )

     number of k points=   512 (tetrahedron method)

     Number of k-points >= 100: set verbosity='high' to print them.

     Dense  grid:    12183 G-vectors     FFT dimensions: (  30,  30,  36)

     Estimated max dynamical RAM per process >       6.46 MB

     Estimated total dynamical RAM >     206.65 MB

     The potential is recalculated from file :
     ./_ph0/pwscf.q_4/pwscf.save/charge-density

     Starting wfcs are   12 atomic wfcs

     Band Structure Calculation
     Davidson diagonalization with overlap

     ethr =  1.25E-10,  avg # of iterations = 17.3

     total cpu time spent up to now is       18.8 secs

     End of band structure calculation

     Number of k-points >= 100: set verbosity='high' to print the bands.

     the Fermi energy is     7.6693 ev

     Writing output data file ./_ph0/pwscf.q_4/pwscf.save/
 
     [dfpt_tetra]  Dos(E_F)[/Ry] :   0.8946587E+01

     Phonon                                                                     

     bravais-lattice index     =            0
     lattice parameter (alat)  =       5.8057  a.u.
     unit-cell volume          =     193.7024 (a.u.)^3
     number of atoms/cell      =            3
     number of atomic types    =            2
     kinetic-energy cut-off    =      60.0000  Ry
     charge density cut-off    =     240.0000  Ry
     convergence threshold     =      1.0E-15
     beta                      =       0.3000
     number of iterations used =            4
     Exchange-correlation= PBE
                           (   1   4   3   4   0   0   0)


     celldm(1)=    5.80574  celldm(2)=    0.00000  celldm(3)=    0.00000
     celldm(4)=    0.00000  celldm(5)=    0.00000  celldm(6)=    0.00000

     crystal axes: (cart. coord. in units of alat)
               a(1) = (  1.0000  0.0000  0.0000 )  
               a(2) = ( -0.5000  0.8660  0.0000 )  
               a(3) = (  0.0000  0.0000  1.1430 )  

     reciprocal axes: (cart. coord. in units 2 pi/alat)
               b(1) = (  1.0000  0.5774 -0.0000 )  
               b(2) = (  0.0000  1.1547  0.0000 )  
               b(3) = (  0.0000 -0.0000  0.8749 )  


     Atoms inside the unit cell: 

     Cartesian axes

     site n.  atom      mass           positions (alat units)
        1     Mg  24.3050   tau(    1) = (    0.00000    0.00000    0.00000  )
        2     B   10.8110   tau(    2) = (   -0.00000    0.57735    0.57148  )
        3     B   10.8110   tau(    3) = (    0.50000    0.28867    0.57148  )

     Computing dynamical matrix for 
                    q = (   0.1250000   0.5051816  -0.4374591 )

      2 Sym.Ops. (no q -> -q+G )


     G cutoff =  204.9114  (  12183 G-vectors)     FFT grid: ( 30, 30, 36)
     number of k points=   512

     PseudoPot. # 1 for B  read from file:
     ./B.pbe-nc.UPF
     MD5 check sum: 75cd07c0a87b9b912465967514cf4679
     Pseudo is Norm-conserving, Zval =  3.0
     Generated using "atomic" code by A. Dal Corso v.5.0.99 svn rev. 10869
     Using radial grid of 1059 points,  1 beta functions with: 
                l(1) =   1

     PseudoPot. # 2 for Mg read from file:
     ./Mg.pbe-n-nc.UPF
     MD5 check sum: fdc482938bc77a1b5407024e0eeca3bc
     Pseudo is Norm-conserving + core correction, Zval =  2.0
     Generated using "atomic" code by A. Dal Corso v.5.0.99 svn rev. 10869
     Using radial grid of 1129 points,  2 beta functions with: 
                l(1) =   0
                l(2) =   1


     Atomic displacements:
     There are   9 irreducible representations

     Representation     1      1 modes -  To be done

     Representation     2      1 modes -  To be done

     Representation     3      1 modes -  To be done

     Representation     4      1 modes -  To be done

     Representation     5      1 modes -  To be done

     Representation     6      1 modes -  To be done

     Representation     7      1 modes -  To be done

     Representation     8      1 modes -  To be done

     Representation     9      1 modes -  To be done



     Alpha used in Ewald sum =   2.5000
     PHONON       :   4m14.47s CPU   4m45.28s WALL



     Representation #  1 mode #   1

     Self-consistent Calculation

      iter #   1 total cpu time :   286.0 secs   av.it.:   3.2
      thresh= 1.000E-02 alpha_mix =  0.300 |ddv_scf|^2 =  1.532E-05

      iter #   2 total cpu time :   286.9 secs   av.it.:   4.7
      thresh= 3.914E-04 alpha_mix =  0.300 |ddv_scf|^2 =  2.592E-07

      iter #   3 total cpu time :   287.7 secs   av.it.:   4.9
      thresh= 5.091E-05 alpha_mix =  0.300 |ddv_scf|^2 =  4.261E-08

      iter #   4 total cpu time :   288.6 secs   av.it.:   4.7
      thresh= 2.064E-05 alpha_mix =  0.300 |ddv_scf|^2 =  8.864E-09

      iter #   5 total cpu time :   289.5 secs   av.it.:   5.1
      thresh= 9.415E-06 alpha_mix =  0.300 |ddv_scf|^2 =  8.153E-10

      iter #   6 total cpu time :   290.4 secs   av.it.:   4.9
      thresh= 2.855E-06 alpha_mix =  0.300 |ddv_scf|^2 =  2.846E-11

      iter #   7 total cpu time :   291.3 secs   av.it.:   4.8
      thresh= 5.335E-07 alpha_mix =  0.300 |ddv_scf|^2 =  6.911E-12

      iter #   8 total cpu time :   292.2 secs   av.it.:   5.1
      thresh= 2.629E-07 alpha_mix =  0.300 |ddv_scf|^2 =  1.510E-13

      iter #   9 total cpu time :   293.1 secs   av.it.:   5.2
      thresh= 3.886E-08 alpha_mix =  0.300 |ddv_scf|^2 =  1.343E-14

      iter #  10 total cpu time :   294.0 secs   av.it.:   5.4
      thresh= 1.159E-08 alpha_mix =  0.300 |ddv_scf|^2 =  2.334E-16

     End of self-consistent calculation

     Convergence has been achieved 


     Representation #  2 mode #   2

     Self-consistent Calculation

      iter #   1 total cpu time :   294.8 secs   av.it.:   2.2
      thresh= 1.000E-02 alpha_mix =  0.300 |ddv_scf|^2 =  1.349E-06

      iter #   2 total cpu time :   295.7 secs   av.it.:   4.5
      thresh= 1.162E-04 alpha_mix =  0.300 |ddv_scf|^2 =  1.722E-07

      iter #   3 total cpu time :   296.5 secs   av.it.:   4.0
      thresh= 4.150E-05 alpha_mix =  0.300 |ddv_scf|^2 =  7.489E-08

      iter #   4 total cpu time :   297.2 secs   av.it.:   4.1
      thresh= 2.737E-05 alpha_mix =  0.300 |ddv_scf|^2 =  5.722E-09

      iter #   5 total cpu time :   298.2 secs   av.it.:   4.1
      thresh= 7.564E-06 alpha_mix =  0.300 |ddv_scf|^2 =  1.642E-10

      iter #   6 total cpu time :   299.1 secs   av.it.:   5.0
      thresh= 1.282E-06 alpha_mix =  0.300 |ddv_scf|^2 =  6.987E-12

      iter #   7 total cpu time :   299.9 secs   av.it.:   4.2
      thresh= 2.643E-07 alpha_mix =  0.300 |ddv_scf|^2 =  3.067E-12

      iter #   8 total cpu time :   300.7 secs   av.it.:   4.7
[...]
        3     B   10.8110   tau(    3) = (    0.50000    0.28867    0.57148  )

     Computing dynamical matrix for 
                    q = (   0.3750000  -0.2165064  -0.4374591 )

      4 Sym.Ops. (no q -> -q+G )


     G cutoff =  204.9114  (  12183 G-vectors)     FFT grid: ( 30, 30, 36)
     number of k points=   288

     PseudoPot. # 1 for B  read from file:
     ./B.pbe-nc.UPF
     MD5 check sum: 75cd07c0a87b9b912465967514cf4679
     Pseudo is Norm-conserving, Zval =  3.0
     Generated using "atomic" code by A. Dal Corso v.5.0.99 svn rev. 10869
     Using radial grid of 1059 points,  1 beta functions with: 
                l(1) =   1

     PseudoPot. # 2 for Mg read from file:
     ./Mg.pbe-n-nc.UPF
     MD5 check sum: fdc482938bc77a1b5407024e0eeca3bc
     Pseudo is Norm-conserving + core correction, Zval =  2.0
     Generated using "atomic" code by A. Dal Corso v.5.0.99 svn rev. 10869
     Using radial grid of 1129 points,  2 beta functions with: 
                l(1) =   0
                l(2) =   1


     Atomic displacements:
     There are   9 irreducible representations

     Representation     1      1 modes -  To be done

     Representation     2      1 modes -  To be done

     Representation     3      1 modes -  To be done

     Representation     4      1 modes -  To be done

     Representation     5      1 modes -  To be done

     Representation     6      1 modes -  To be done

     Representation     7      1 modes -  To be done

     Representation     8      1 modes -  To be done

     Representation     9      1 modes -  To be done



     Alpha used in Ewald sum =   2.5000
     PHONON       :  14m 8.24s CPU  15m52.82s WALL



     Representation #  1 mode #   1

     Self-consistent Calculation

      iter #   1 total cpu time :   953.3 secs   av.it.:   3.0
      thresh= 1.000E-02 alpha_mix =  0.300 |ddv_scf|^2 =  1.042E-06

      iter #   2 total cpu time :   953.9 secs   av.it.:   4.6
      thresh= 1.021E-04 alpha_mix =  0.300 |ddv_scf|^2 =  2.761E-07

      iter #   3 total cpu time :   954.5 secs   av.it.:   4.8
      thresh= 5.255E-05 alpha_mix =  0.300 |ddv_scf|^2 =  5.725E-09

      iter #   4 total cpu time :   955.0 secs   av.it.:   4.7
      thresh= 7.567E-06 alpha_mix =  0.300 |ddv_scf|^2 =  1.356E-10

      iter #   5 total cpu time :   955.6 secs   av.it.:   4.9
      thresh= 1.164E-06 alpha_mix =  0.300 |ddv_scf|^2 =  1.014E-11

      iter #   6 total cpu time :   956.2 secs   av.it.:   5.0
      thresh= 3.184E-07 alpha_mix =  0.300 |ddv_scf|^2 =  1.244E-14

      iter #   7 total cpu time :   956.8 secs   av.it.:   5.0
      thresh= 1.115E-08 alpha_mix =  0.300 |ddv_scf|^2 =  3.009E-15

      iter #   8 total cpu time :   957.3 secs   av.it.:   4.9
      thresh= 5.485E-09 alpha_mix =  0.300 |ddv_scf|^2 =  1.929E-17

     End of self-consistent calculation

     Convergence has been achieved 


     Representation #  2 mode #   2

     Self-consistent Calculation

      iter #   1 total cpu time :   957.8 secs   av.it.:   2.3
      thresh= 1.000E-02 alpha_mix =  0.300 |ddv_scf|^2 =  3.359E-06

      iter #   2 total cpu time :   958.3 secs   av.it.:   4.4
      thresh= 1.833E-04 alpha_mix =  0.300 |ddv_scf|^2 =  2.751E-07

      iter #   3 total cpu time :   958.8 secs   av.it.:   4.3
      thresh= 5.245E-05 alpha_mix =  0.300 |ddv_scf|^2 =  8.820E-08

      iter #   4 total cpu time :   959.3 secs   av.it.:   4.0
      thresh= 2.970E-05 alpha_mix =  0.300 |ddv_scf|^2 =  6.803E-09

      iter #   5 total cpu time :   959.8 secs   av.it.:   4.3
      thresh= 8.248E-06 alpha_mix =  0.300 |ddv_scf|^2 =  1.045E-10

      iter #   6 total cpu time :   960.4 secs   av.it.:   5.1
      thresh= 1.022E-06 alpha_mix =  0.300 |ddv_scf|^2 =  5.226E-12

      iter #   7 total cpu time :   960.9 secs   av.it.:   4.4
      thresh= 2.286E-07 alpha_mix =  0.300 |ddv_scf|^2 =  2.196E-12

      iter #   8 total cpu time :   961.5 secs   av.it.:   4.7
      thresh= 1.482E-07 alpha_mix =  0.300 |ddv_scf|^2 =  3.130E-14

      iter #   9 total cpu time :   962.0 secs   av.it.:   4.8
      thresh= 1.769E-08 alpha_mix =  0.300 |ddv_scf|^2 =  4.696E-15

      iter #  10 total cpu time :   962.6 secs   av.it.:   4.9
      thresh= 6.853E-09 alpha_mix =  0.300 |ddv_scf|^2 =  5.457E-16

     End of self-consistent calculation

     Convergence has been achieved 


     Representation #  3 mode #   3

     Self-consistent Calculation

      iter #   1 total cpu time :   963.1 secs   av.it.:   3.2
      thresh= 1.000E-02 alpha_mix =  0.300 |ddv_scf|^2 =  2.305E-05

      iter #   2 total cpu time :   963.8 secs   av.it.:   4.6
      thresh= 4.801E-04 alpha_mix =  0.300 |ddv_scf|^2 =  8.854E-07

      iter #   3 total cpu time :   964.3 secs   av.it.:   4.7
      thresh= 9.410E-05 alpha_mix =  0.300 |ddv_scf|^2 =  7.474E-08

      iter #   4 total cpu time :   964.8 secs   av.it.:   4.7
      thresh= 2.734E-05 alpha_mix =  0.300 |ddv_scf|^2 =  9.615E-09

      iter #   5 total cpu time :   965.4 secs   av.it.:   5.0
      thresh= 9.806E-06 alpha_mix =  0.300 |ddv_scf|^2 =  9.992E-10

      iter #   6 total cpu time :   965.9 secs   av.it.:   4.8
      thresh= 3.161E-06 alpha_mix =  0.300 |ddv_scf|^2 =  1.156E-11

      iter #   7 total cpu time :   966.5 secs   av.it.:   4.7
      thresh= 3.400E-07 alpha_mix =  0.300 |ddv_scf|^2 =  3.693E-12

      iter #   8 total cpu time :   967.1 secs   av.it.:   5.1
      thresh= 1.922E-07 alpha_mix =  0.300 |ddv_scf|^2 =  7.976E-15

      iter #   9 total cpu time :   967.6 secs   av.it.:   5.0
      thresh= 8.931E-09 alpha_mix =  0.300 |ddv_scf|^2 =  1.830E-15

      iter #  10 total cpu time :   968.2 secs   av.it.:   4.7
      thresh= 4.277E-09 alpha_mix =  0.300 |ddv_scf|^2 =  6.759E-16

     End of self-consistent calculation

     Convergence has been achieved 


     Representation #  4 mode #   4

     Self-consistent Calculation

      iter #   1 total cpu time :   968.7 secs   av.it.:   3.0
      thresh= 1.000E-02 alpha_mix =  0.300 |ddv_scf|^2 =  1.182E-05

      iter #   2 total cpu time :   969.2 secs   av.it.:   4.4
      thresh= 3.438E-04 alpha_mix =  0.300 |ddv_scf|^2 =  5.070E-07

      iter #   3 total cpu time :   969.7 secs   av.it.:   4.6
      thresh= 7.121E-05 alpha_mix =  0.300 |ddv_scf|^2 =  2.824E-08

      iter #   4 total cpu time :   970.3 secs   av.it.:   4.9
      thresh= 1.680E-05 alpha_mix =  0.300 |ddv_scf|^2 =  1.922E-09

      iter #   5 total cpu time :   970.8 secs   av.it.:   4.6
      thresh= 4.384E-06 alpha_mix =  0.300 |ddv_scf|^2 =  6.872E-11

      iter #   6 total cpu time :   971.4 secs   av.it.:   4.5
      thresh= 8.290E-07 alpha_mix =  0.300 |ddv_scf|^2 =  1.075E-11

      iter #   7 total cpu time :   971.9 secs   av.it.:   4.8
      thresh= 3.279E-07 alpha_mix =  0.300 |ddv_scf|^2 =  2.196E-14

      iter #   8 total cpu time :   972.5 secs   av.it.:   4.7
      thresh= 1.482E-08 alpha_mix =  0.300 |ddv_scf|^2 =  9.194E-15

      iter #   9 total cpu time :   973.0 secs   av.it.:   4.9
      thresh= 9.588E-09 alpha_mix =  0.300 |ddv_scf|^2 =  8.945E-17

     End of self-consistent calculation

     Convergence has been achieved 


     Representation #  5 mode #   5

     Self-consistent Calculation

      iter #   1 total cpu time :   973.5 secs   av.it.:   3.0
      thresh= 1.000E-02 alpha_mix =  0.300 |ddv_scf|^2 =  1.182E-05

      iter #   2 total cpu time :   974.0 secs   av.it.:   4.4
      thresh= 3.438E-04 alpha_mix =  0.300 |ddv_scf|^2 =  5.070E-07

      iter #   3 total cpu time :   974.6 secs   av.it.:   4.6
      thresh= 7.121E-05 alpha_mix =  0.300 |ddv_scf|^2 =  2.824E-08

      iter #   4 total cpu time :   975.2 secs   av.it.:   4.9
      thresh= 1.680E-05 alpha_mix =  0.300 |ddv_scf|^2 =  1.922E-09

      iter #   5 total cpu time :   975.7 secs   av.it.:   4.6
      thresh= 4.384E-06 alpha_mix =  0.300 |ddv_scf|^2 =  6.872E-11

      iter #   6 total cpu time :   976.2 secs   av.it.:   4.5
      thresh= 8.290E-07 alpha_mix =  0.300 |ddv_scf|^2 =  1.075E-11

      iter #   7 total cpu time :   976.8 secs   av.it.:   4.8
      thresh= 3.279E-07 alpha_mix =  0.300 |ddv_scf|^2 =  2.196E-14

      iter #   8 total cpu time :   977.4 secs   av.it.:   4.7
      thresh= 1.482E-08 alpha_mix =  0.300 |ddv_scf|^2 =  9.194E-15

      iter #   9 total cpu time :   977.9 secs   av.it.:   4.9
      thresh= 9.588E-09 alpha_mix =  0.300 |ddv_scf|^2 =  8.945E-17

     End of self-consistent calculation

     Convergence has been achieved 


     Representation #  6 mode #   6

     Self-consistent Calculation

      iter #   1 total cpu time :   978.5 secs   av.it.:   3.2
      thresh= 1.000E-02 alpha_mix =  0.300 |ddv_scf|^2 =  2.305E-05

      iter #   2 total cpu time :   979.1 secs   av.it.:   4.6
      thresh= 4.801E-04 alpha_mix =  0.300 |ddv_scf|^2 =  8.854E-07

      iter #   3 total cpu time :   979.6 secs   av.it.:   4.7
      thresh= 9.410E-05 alpha_mix =  0.300 |ddv_scf|^2 =  7.474E-08

      iter #   4 total cpu time :   980.1 secs   av.it.:   4.7
      thresh= 2.734E-05 alpha_mix =  0.300 |ddv_scf|^2 =  9.615E-09

      iter #   5 total cpu time :   980.7 secs   av.it.:   5.0
      thresh= 9.806E-06 alpha_mix =  0.300 |ddv_scf|^2 =  9.992E-10

      iter #   6 total cpu time :   981.2 secs   av.it.:   4.8
      thresh= 3.161E-06 alpha_mix =  0.300 |ddv_scf|^2 =  1.156E-11

      iter #   7 total cpu time :   981.8 secs   av.it.:   4.7
      thresh= 3.400E-07 alpha_mix =  0.300 |ddv_scf|^2 =  3.693E-12

      iter #   8 total cpu time :   982.4 secs   av.it.:   5.1
      thresh= 1.922E-07 alpha_mix =  0.300 |ddv_scf|^2 =  7.971E-15

      iter #   9 total cpu time :   982.9 secs   av.it.:   5.0
      thresh= 8.928E-09 alpha_mix =  0.300 |ddv_scf|^2 =  1.829E-15

      iter #  10 total cpu time :   983.5 secs   av.it.:   4.7
      thresh= 4.277E-09 alpha_mix =  0.300 |ddv_scf|^2 =  6.757E-16

     End of self-consistent calculation

     Convergence has been achieved 


     Representation #  7 mode #   7

     Self-consistent Calculation

      iter #   1 total cpu time :   983.9 secs   av.it.:   1.8
      thresh= 1.000E-02 alpha_mix =  0.300 |ddv_scf|^2 =  3.330E-07

      iter #   2 total cpu time :   984.4 secs   av.it.:   3.6
      thresh= 5.770E-05 alpha_mix =  0.300 |ddv_scf|^2 =  1.627E-07

      iter #   3 total cpu time :   984.9 secs   av.it.:   3.9
      thresh= 4.033E-05 alpha_mix =  0.300 |ddv_scf|^2 =  1.457E-10

      iter #   4 total cpu time :   985.4 secs   av.it.:   4.2
      thresh= 1.207E-06 alpha_mix =  0.300 |ddv_scf|^2 =  3.007E-11

      iter #   5 total cpu time :   985.9 secs   av.it.:   4.3
      thresh= 5.484E-07 alpha_mix =  0.300 |ddv_scf|^2 =  1.764E-13

      iter #   6 total cpu time :   986.5 secs   av.it.:   4.8
      thresh= 4.200E-08 alpha_mix =  0.300 |ddv_scf|^2 =  3.408E-15

      iter #   7 total cpu time :   987.0 secs   av.it.:   4.4
      thresh= 5.838E-09 alpha_mix =  0.300 |ddv_scf|^2 =  1.001E-15

      iter #   8 total cpu time :   987.6 secs   av.it.:   4.5
      thresh= 3.163E-09 alpha_mix =  0.300 |ddv_scf|^2 =  3.457E-18

     End of self-consistent calculation

     Convergence has been achieved 


     Representation #  8 mode #   8

     Self-consistent Calculation

      iter #   1 total cpu time :   988.0 secs   av.it.:   2.2
      thresh= 1.000E-02 alpha_mix =  0.300 |ddv_scf|^2 =  1.751E-06

      iter #   2 total cpu time :   988.6 secs   av.it.:   4.1
      thresh= 1.323E-04 alpha_mix =  0.300 |ddv_scf|^2 =  1.922E-07

      iter #   3 total cpu time :   989.1 secs   av.it.:   4.0
      thresh= 4.384E-05 alpha_mix =  0.300 |ddv_scf|^2 =  6.325E-08

      iter #   4 total cpu time :   989.6 secs   av.it.:   4.0
      thresh= 2.515E-05 alpha_mix =  0.300 |ddv_scf|^2 =  5.219E-10

      iter #   5 total cpu time :   990.2 secs   av.it.:   4.7
      thresh= 2.284E-06 alpha_mix =  0.300 |ddv_scf|^2 =  4.334E-11

      iter #   6 total cpu time :   990.7 secs   av.it.:   4.5
      thresh= 6.583E-07 alpha_mix =  0.300 |ddv_scf|^2 =  4.035E-12

      iter #   7 total cpu time :   991.3 secs   av.it.:   4.8
      thresh= 2.009E-07 alpha_mix =  0.300 |ddv_scf|^2 =  2.759E-14

      iter #   8 total cpu time :   991.8 secs   av.it.:   4.3
      thresh= 1.661E-08 alpha_mix =  0.300 |ddv_scf|^2 =  1.185E-14

      iter #   9 total cpu time :   992.3 secs   av.it.:   4.8
      thresh= 1.089E-08 alpha_mix =  0.300 |ddv_scf|^2 =  3.554E-17

     End of self-consistent calculation

     Convergence has been achieved 


     Representation #  9 mode #   9

     Self-consistent Calculation

      iter #   1 total cpu time :   992.8 secs   av.it.:   3.0
      thresh= 1.000E-02 alpha_mix =  0.300 |ddv_scf|^2 =  1.042E-06

      iter #   2 total cpu time :   993.6 secs   av.it.:   4.6
      thresh= 1.021E-04 alpha_mix =  0.300 |ddv_scf|^2 =  2.761E-07

      iter #   3 total cpu time :   994.1 secs   av.it.:   4.8
      thresh= 5.255E-05 alpha_mix =  0.300 |ddv_scf|^2 =  5.725E-09

      iter #   4 total cpu time :   994.7 secs   av.it.:   4.7
      thresh= 7.567E-06 alpha_mix =  0.300 |ddv_scf|^2 =  1.356E-10

      iter #   5 total cpu time :   995.2 secs   av.it.:   4.9
      thresh= 1.164E-06 alpha_mix =  0.300 |ddv_scf|^2 =  1.014E-11

      iter #   6 total cpu time :   995.8 secs   av.it.:   5.0
      thresh= 3.184E-07 alpha_mix =  0.300 |ddv_scf|^2 =  1.244E-14

      iter #   7 total cpu time :   996.4 secs   av.it.:   5.0
      thresh= 1.115E-08 alpha_mix =  0.300 |ddv_scf|^2 =  3.009E-15

      iter #   8 total cpu time :   997.0 secs   av.it.:   4.9
      thresh= 5.485E-09 alpha_mix =  0.300 |ddv_scf|^2 =  1.929E-17

     End of self-consistent calculation

     Convergence has been achieved 

     Number of q in the star =    6
     List of q in the star:
          1   0.375000000  -0.216506381  -0.437459078
          2   0.375000000   0.216506381  -0.437459078
          3  -0.000000000  -0.433012762  -0.437459078
          4   0.000000000   0.433012762  -0.437459078
          5  -0.375000000  -0.216506381  -0.437459078
          6  -0.375000000   0.216506381  -0.437459078

     Diagonalizing the dynamical matrix

     q = (    0.375000000  -0.216506381  -0.437459078 ) 

 **************************************************************************
     freq (    1) =       7.557350 [THz] =     252.086058 [cm-1]
     freq (    2) =       8.191712 [THz] =     273.246107 [cm-1]
     freq (    3) =       8.657999 [THz] =     288.799754 [cm-1]
     freq (    4) =      13.011437 [THz] =     434.014827 [cm-1]
     freq (    5) =      13.512892 [THz] =     450.741570 [cm-1]
     freq (    6) =      17.633256 [THz] =     588.182114 [cm-1]
     freq (    7) =      19.887903 [THz] =     663.389024 [cm-1]
     freq (    8) =      22.234073 [THz] =     741.648837 [cm-1]
     freq (    9) =      24.416416 [THz] =     814.443985 [cm-1]
 **************************************************************************

     init_run     :      5.04s CPU      5.51s WALL (      12 calls)
     electrons    :     40.47s CPU     45.68s WALL (      12 calls)

     Called by init_run:
     wfcinit      :      0.00s CPU      0.14s WALL (      12 calls)
     potinit      :      0.39s CPU      0.58s WALL (      12 calls)
     hinit0       :      4.52s CPU      4.52s WALL (      12 calls)

     Called by electrons:
     c_bands      :     38.94s CPU     44.12s WALL (      12 calls)
     v_of_rho     :      0.39s CPU      0.41s WALL (      13 calls)

     Called by c_bands:
     init_us_2    :      3.57s CPU      3.94s WALL (    9635 calls)
     cegterg      :     31.20s CPU     31.43s WALL (     224 calls)

     Called by sum_band:

     Called by *egterg:
     h_psi        :    482.96s CPU    486.47s WALL (   79896 calls)
     g_psi        :      0.14s CPU      0.14s WALL (    2952 calls)
     cdiaghg      :      0.69s CPU      0.70s WALL (    3128 calls)

     Called by h_psi:
     h_psi:calbec :     15.04s CPU     15.13s WALL (   79896 calls)
     vloc_psi     :    453.19s CPU    456.54s WALL (   79896 calls)
     add_vuspsi   :     13.52s CPU     13.58s WALL (   79896 calls)

     General routines
     calbec       :     30.06s CPU     30.27s WALL (  160488 calls)
     fft          :     14.80s CPU     16.27s WALL (   15743 calls)
     ffts         :      1.71s CPU      1.78s WALL (    1764 calls)
     fftw         :    602.16s CPU    608.32s WALL (  906624 calls)
     davcio       :      4.19s CPU     21.07s WALL (   52845 calls)

     Parallel routines

     PHONON       :  14m47.60s CPU  16m37.04s WALL

     INITIALIZATION: 
     phq_setup    :      1.20s CPU      1.53s WALL (      12 calls)
     phq_init     :     19.65s CPU     20.20s WALL (      12 calls)

     phq_init     :     19.65s CPU     20.20s WALL (      12 calls)
     set_drhoc    :     10.96s CPU     10.96s WALL (      36 calls)
     init_vloc    :      1.91s CPU      1.91s WALL (      13 calls)
     init_us_1    :      0.77s CPU      0.77s WALL (      13 calls)

     DYNAMICAL MATRIX:
     dynmat0      :      8.80s CPU      9.23s WALL (      12 calls)
     phqscf       :    819.22s CPU    921.87s WALL (      12 calls)
     dynmatrix    :      0.05s CPU      0.09s WALL (      12 calls)

     phqscf       :    819.22s CPU    921.87s WALL (      12 calls)
     solve_linter :    815.43s CPU    916.20s WALL (     108 calls)
     drhodv       :      3.36s CPU      3.90s WALL (     108 calls)

     dynmat0      :      8.80s CPU      9.23s WALL (      12 calls)
     dynmat_us    :      0.63s CPU      0.66s WALL (      12 calls)
     d2ionq       :      0.16s CPU      0.16s WALL (      12 calls)
     dynmatcc     :      7.69s CPU      7.70s WALL (      12 calls)

     dynmat_us    :      0.63s CPU      0.66s WALL (      12 calls)

     phqscf       :    819.22s CPU    921.87s WALL (      12 calls)
     solve_linter :    815.43s CPU    916.20s WALL (     108 calls)

     solve_linter :    815.43s CPU    916.20s WALL (     108 calls)
     dvqpsi_us    :     10.62s CPU     10.74s WALL (     792 calls)
     ortho        :      5.48s CPU      5.51s WALL (    8491 calls)
     cgsolve      :    508.95s CPU    512.66s WALL (    8491 calls)
     incdrhoscf   :     98.02s CPU     99.33s WALL (    8491 calls)
     vpsifft      :     87.92s CPU     89.99s WALL (    7699 calls)
     dv_of_drho   :     20.71s CPU     23.45s WALL (    1126 calls)
     mix_pot      :      3.09s CPU      9.07s WALL (    1126 calls)
     psymdvscf    :      7.50s CPU      7.60s WALL (     910 calls)

     dvqpsi_us    :     10.62s CPU     10.74s WALL (     792 calls)
     dvqpsi_us_on :      0.60s CPU      0.61s WALL (     792 calls)

     cgsolve      :    508.95s CPU    512.66s WALL (    8491 calls)
     ch_psi       :    497.71s CPU    501.24s WALL (   76544 calls)

     ch_psi       :    497.71s CPU    501.24s WALL (   76544 calls)
     h_psi        :    482.96s CPU    486.47s WALL (   79896 calls)
     last         :     39.43s CPU     39.65s WALL (   76544 calls)

     h_psi        :    482.96s CPU    486.47s WALL (   79896 calls)
     add_vuspsi   :     13.52s CPU     13.58s WALL (   79896 calls)

     incdrhoscf   :     98.02s CPU     99.33s WALL (    8491 calls)


      General routines
     calbec       :     30.06s CPU     30.27s WALL (  160488 calls)
     fft          :     14.80s CPU     16.27s WALL (   15743 calls)
     ffts         :      1.71s CPU      1.78s WALL (    1764 calls)
     fftw         :    602.16s CPU    608.32s WALL (  906624 calls)
     davcio       :      4.19s CPU     21.07s WALL (   52845 calls)
     write_rec    :      1.38s CPU      8.50s WALL (    1234 calls)


     PHONON       :  14m47.60s CPU  16m37.04s WALL


   This run was terminated on:   2:16:12  23Nov2019            

=------------------------------------------------------------------------------=
   JOB DONE.
=------------------------------------------------------------------------------=
