
     Program PWSCF v.6.4.1 starts on 23Nov2019 at  1:48:39 

     This program is part of the open-source Quantum ESPRESSO suite
     for quantum simulation of materials; please cite
         "P. Giannozzi et al., J. Phys.:Condens. Matter 21 395502 (2009);
         "P. Giannozzi et al., J. Phys.:Condens. Matter 29 465901 (2017);
          URL http://www.quantum-espresso.org", 
     in publications or presentations arising from this work. More details at
     http://www.quantum-espresso.org/quote

     Parallel version (MPI & OpenMP), running on      20 processor cores
     Number of MPI processes:                20
     Threads/MPI process:                     1

     MPI processes distributed on     1 nodes
     K-points division:     npool     =      20
     Reading input from rx.in

     Current dimensions of program PWSCF are:
     Max number of different atomic species (ntypx) = 10
     Max number of k-points (npk) = 400000
     Max angular momentum in pseudopotentials (lmaxx) =  3
     Message from routine iosys:
     BEWARE:  force calculation with tetrahedra (not recommanded)
     Message from routine iosys:
     BEWARE: stress calculation with tetrahedra (not recommanded)

     Subspace diagonalization in iterative solution of the eigenvalue problem:
     a serial algorithm will be used

     Message from routine setup:
     using ibrav=0 with symmetry is DISCOURAGED, use correct ibrav instead
     [opt_tetra]  Optimized tetrahedron method is used.

     G-vector sticks info
     --------------------
     sticks:   dense  smooth     PW     G-vecs:    dense   smooth      PW
     Sum         559     559    163                12183    12183    2017



     bravais-lattice index     =            0
     lattice parameter (alat)  =       5.8057  a.u.
     unit-cell volume          =     193.7024 (a.u.)^3
     number of atoms/cell      =            3
     number of atomic types    =            2
     number of electrons       =         8.00
     number of Kohn-Sham states=            8
     kinetic-energy cutoff     =      60.0000  Ry
     charge density cutoff     =     240.0000  Ry
     convergence threshold     =      3.0E-10
     mixing beta               =       0.3000
     number of iterations used =            8  plain     mixing
     Exchange-correlation= PBE
                           (   1   4   3   4   0   0   0)
     nstep                     =           50


     celldm(1)=   5.805736  celldm(2)=   0.000000  celldm(3)=   0.000000
     celldm(4)=   0.000000  celldm(5)=   0.000000  celldm(6)=   0.000000

     crystal axes: (cart. coord. in units of alat)
               a(1) = (   1.000000  -0.000000   0.000000 )  
               a(2) = (  -0.500000   0.866025  -0.000000 )  
               a(3) = (   0.000000   0.000000   1.142964 )  

     reciprocal axes: (cart. coord. in units 2 pi/alat)
               b(1) = (  1.000000  0.577350 -0.000000 )  
               b(2) = (  0.000000  1.154701 -0.000000 )  
               b(3) = (  0.000000  0.000000  0.874918 )  


     PseudoPot. # 1 for B  read from file:
     ./B.pbe-nc.UPF
     MD5 check sum: 75cd07c0a87b9b912465967514cf4679
     Pseudo is Norm-conserving, Zval =  3.0
     Generated using "atomic" code by A. Dal Corso v.5.0.99 svn rev. 10869
     Using radial grid of 1059 points,  1 beta functions with: 
                l(1) =   1

     PseudoPot. # 2 for Mg read from file:
     ./Mg.pbe-n-nc.UPF
     MD5 check sum: fdc482938bc77a1b5407024e0eeca3bc
     Pseudo is Norm-conserving + core correction, Zval =  2.0
     Generated using "atomic" code by A. Dal Corso v.5.0.99 svn rev. 10869
     Using radial grid of 1129 points,  2 beta functions with: 
                l(1) =   0
                l(2) =   1

     atomic species   valence    mass     pseudopotential
        B              3.00    10.81100     B ( 1.00)
        Mg             2.00    24.30500     Mg( 1.00)

     24 Sym. Ops., with inversion, found



   Cartesian axes

     site n.     atom                  positions (alat units)
         1           Mg  tau(   1) = (   0.0000000   0.0000000   0.0000000  )
         2           B   tau(   2) = (  -0.0000005   0.5773505   0.5714820  )
         3           B   tau(   3) = (   0.5000005   0.2886748   0.5714820  )

     number of k points=    40 (tetrahedron method)
                       cart. coord. in units 2pi/alat
        k(    1) = (   0.0000000   0.0000000   0.0000000), wk =   0.0052083
        k(    2) = (   0.0000000   0.0000000   0.1458197), wk =   0.0104167
        k(    3) = (   0.0000000   0.0000000   0.2916394), wk =   0.0104167
        k(    4) = (   0.0000000   0.0000000  -0.4374591), wk =   0.0052083
        k(    5) = (   0.0000000   0.1443376   0.0000000), wk =   0.0312500
        k(    6) = (   0.0000000   0.1443376   0.1458197), wk =   0.0625000
        k(    7) = (   0.0000000   0.1443376   0.2916394), wk =   0.0625000
        k(    8) = (   0.0000000   0.1443376  -0.4374591), wk =   0.0312500
        k(    9) = (   0.0000000   0.2886752   0.0000000), wk =   0.0312500
        k(   10) = (   0.0000000   0.2886752   0.1458197), wk =   0.0625000
        k(   11) = (   0.0000000   0.2886752   0.2916394), wk =   0.0625000
        k(   12) = (   0.0000000   0.2886752  -0.4374591), wk =   0.0312500
        k(   13) = (   0.0000000   0.4330128   0.0000000), wk =   0.0312500
        k(   14) = (   0.0000000   0.4330128   0.1458197), wk =   0.0625000
        k(   15) = (   0.0000000   0.4330128   0.2916394), wk =   0.0625000
        k(   16) = (   0.0000000   0.4330128  -0.4374591), wk =   0.0312500
        k(   17) = (   0.0000000  -0.5773503   0.0000000), wk =   0.0156250
        k(   18) = (   0.0000000  -0.5773503   0.1458197), wk =   0.0312500
        k(   19) = (   0.0000000  -0.5773503   0.2916394), wk =   0.0312500
        k(   20) = (   0.0000000  -0.5773503  -0.4374591), wk =   0.0156250
        k(   21) = (   0.1250000   0.2165064   0.0000000), wk =   0.0312500
        k(   22) = (   0.1250000   0.2165064   0.1458197), wk =   0.0625000
        k(   23) = (   0.1250000   0.2165064   0.2916394), wk =   0.0625000
        k(   24) = (   0.1250000   0.2165064  -0.4374591), wk =   0.0312500
        k(   25) = (   0.1250000   0.3608440   0.0000000), wk =   0.0625000
        k(   26) = (   0.1250000   0.3608440   0.1458197), wk =   0.1250000
        k(   27) = (   0.1250000   0.3608440   0.2916394), wk =   0.1250000
        k(   28) = (   0.1250000   0.3608440  -0.4374591), wk =   0.0625000
        k(   29) = (   0.1250000   0.5051816   0.0000000), wk =   0.0625000
        k(   30) = (   0.1250000   0.5051816   0.1458197), wk =   0.1250000
        k(   31) = (   0.1250000   0.5051816   0.2916394), wk =   0.1250000
        k(   32) = (   0.1250000   0.5051816  -0.4374591), wk =   0.0625000
        k(   33) = (   0.2500000   0.4330128   0.0000000), wk =   0.0312500
        k(   34) = (   0.2500000   0.4330128   0.1458197), wk =   0.0625000
        k(   35) = (   0.2500000   0.4330128   0.2916394), wk =   0.0625000
        k(   36) = (   0.2500000   0.4330128  -0.4374591), wk =   0.0312500
        k(   37) = (   0.2500000   0.5773503   0.0000000), wk =   0.0312500
        k(   38) = (   0.2500000   0.5773503   0.1458197), wk =   0.0625000
        k(   39) = (   0.2500000   0.5773503   0.2916394), wk =   0.0625000
        k(   40) = (   0.2500000   0.5773503  -0.4374591), wk =   0.0312500

     Dense  grid:    12183 G-vectors     FFT dimensions: (  30,  30,  36)

     Estimated max dynamical RAM per process >      10.38 MB

     Estimated total dynamical RAM >     207.55 MB

     Initial potential from superposition of free atoms

     starting charge    7.99851, renormalised to    8.00000
     Starting wfcs are   12 randomized atomic wfcs

     total cpu time spent up to now is        2.3 secs

     Self-consistent Calculation

     iteration #  1     ecut=    60.00 Ry     beta= 0.30
     Davidson diagonalization with overlap
     ethr =  1.00E-02,  avg # of iterations =  3.1

     total cpu time spent up to now is        2.5 secs

     total energy              =     -14.02420083 Ry
     Harris-Foulkes estimate   =     -14.14098456 Ry
     estimated scf accuracy    <       0.31006766 Ry

     iteration #  2     ecut=    60.00 Ry     beta= 0.30
     Davidson diagonalization with overlap
     ethr =  3.88E-03,  avg # of iterations =  1.1

     total cpu time spent up to now is        2.7 secs

     total energy              =     -14.00087512 Ry
     Harris-Foulkes estimate   =     -14.04028081 Ry
     estimated scf accuracy    <       0.06881992 Ry

     iteration #  3     ecut=    60.00 Ry     beta= 0.30
     Davidson diagonalization with overlap
     ethr =  8.60E-04,  avg # of iterations =  2.3

     total cpu time spent up to now is        2.9 secs

     total energy              =     -14.01736577 Ry
     Harris-Foulkes estimate   =     -14.01906961 Ry
     estimated scf accuracy    <       0.00402779 Ry

     iteration #  4     ecut=    60.00 Ry     beta= 0.30
     Davidson diagonalization with overlap
     ethr =  5.03E-05,  avg # of iterations =  2.9

     total cpu time spent up to now is        3.2 secs

     total energy              =     -14.01673929 Ry
     Harris-Foulkes estimate   =     -14.02149879 Ry
     estimated scf accuracy    <       0.00945835 Ry

     iteration #  5     ecut=    60.00 Ry     beta= 0.30
     Davidson diagonalization with overlap
     ethr =  5.03E-05,  avg # of iterations =  2.2

     total cpu time spent up to now is        3.4 secs

     total energy              =     -14.01814348 Ry
     Harris-Foulkes estimate   =     -14.01817816 Ry
     estimated scf accuracy    <       0.00009199 Ry

     iteration #  6     ecut=    60.00 Ry     beta= 0.30
     Davidson diagonalization with overlap
     ethr =  1.15E-06,  avg # of iterations =  3.1

     total cpu time spent up to now is        3.6 secs

     total energy              =     -14.01815169 Ry
     Harris-Foulkes estimate   =     -14.01815552 Ry
     estimated scf accuracy    <       0.00000764 Ry

     iteration #  7     ecut=    60.00 Ry     beta= 0.30
     Davidson diagonalization with overlap
     ethr =  9.55E-08,  avg # of iterations =  2.0

     total cpu time spent up to now is        3.8 secs

     total energy              =     -14.01815412 Ry
     Harris-Foulkes estimate   =     -14.01815438 Ry
     estimated scf accuracy    <       0.00000062 Ry

     iteration #  8     ecut=    60.00 Ry     beta= 0.30
     Davidson diagonalization with overlap
     ethr =  7.80E-09,  avg # of iterations =  1.3

     total cpu time spent up to now is        4.0 secs

     total energy              =     -14.01815416 Ry
     Harris-Foulkes estimate   =     -14.01815419 Ry
     estimated scf accuracy    <       0.00000006 Ry

     iteration #  9     ecut=    60.00 Ry     beta= 0.30
     Davidson diagonalization with overlap
     ethr =  8.04E-10,  avg # of iterations =  1.9

     total cpu time spent up to now is        4.2 secs

     total energy              =     -14.01815417 Ry
     Harris-Foulkes estimate   =     -14.01815417 Ry
     estimated scf accuracy    <          1.2E-09 Ry

     iteration # 10     ecut=    60.00 Ry     beta= 0.30
     Davidson diagonalization with overlap
     ethr =  1.51E-11,  avg # of iterations =  2.2

     total cpu time spent up to now is        4.4 secs

     End of self-consistent calculation

          k = 0.0000 0.0000 0.0000 (  1511 PWs)   bands (ev):

    -4.8038   4.7312   8.0806   8.0807   9.4161  14.1529  14.1530  15.9665

          k = 0.0000 0.0000 0.1458 (  1505 PWs)   bands (ev):

    -4.5650   3.2244   8.1695   8.1696  11.4762  14.2319  14.2319  15.8998

          k = 0.0000 0.0000 0.2916 (  1510 PWs)   bands (ev):

    -3.9480   1.1685   8.3583   8.3584  14.4031  14.4032  15.1273  15.7723

          k = 0.0000 0.0000-0.4375 (  1540 PWs)   bands (ev):

    -3.4978   0.1987   8.4589   8.4590  14.4968  14.4969  15.7113  17.7522

          k = 0.0000 0.1443 0.0000 (  1511 PWs)   bands (ev):

    -4.5294   4.9997   6.8110   7.4929   9.6622  13.8969  15.2891  16.5355

          k = 0.0000 0.1443 0.1458 (  1514 PWs)   bands (ev):

    -4.2940   3.5048   6.9239   7.5761  11.6770  14.0451  15.3757  15.4970

          k = 0.0000 0.1443 0.2916 (  1523 PWs)   bands (ev):

    -3.6877   1.4681   7.1654   7.7523  14.0933  14.4899  15.4824  15.5645

          k = 0.0000 0.1443-0.4375 (  1516 PWs)   bands (ev):

    -3.2492   0.5130   7.2995   7.8460  13.9256  14.4664  15.6687  17.8480

          k = 0.0000 0.2887 0.0000 (  1516 PWs)   bands (ev):

    -3.7137   4.3153   5.7885   6.4871  10.3865  13.1792  14.6139  17.0439

          k = 0.0000 0.2887 0.1458 (  1512 PWs)   bands (ev):

    -3.4877   4.2808   4.5128   6.5625  12.1238  13.1623  13.7923  17.9564

          k = 0.0000 0.2887 0.2916 (  1527 PWs)   bands (ev):

    -2.9125   2.3495   4.7858   6.7217  11.5565  13.7750  16.1544  18.0998

          k = 0.0000 0.2887-0.4375 (  1526 PWs)   bands (ev):

    -2.5070   1.4368   4.9723   6.8061  10.9514  14.1067  17.6432  18.3304

          k = 0.0000 0.4330 0.0000 (  1524 PWs)   bands (ev):

    -2.3831   1.7677   5.7536   6.9992  11.3399  12.2104  12.7785  15.8869

          k = 0.0000 0.4330 0.1458 (  1522 PWs)   bands (ev):

    -2.1723   1.9344   5.6272   5.8241  10.5496  12.5839  14.0172  17.3875

          k = 0.0000 0.4330 0.2916 (  1523 PWs)   bands (ev):

    -1.6447   2.3276   3.7437   5.9728   8.8480  13.3139  16.9183  17.6034

          k = 0.0000 0.4330-0.4375 (  1514 PWs)   bands (ev):

    -1.2851   2.5770   2.8807   6.0515   8.1294  13.7447  16.7430  16.9913

          k = 0.0000-0.5774 0.0000 (  1528 PWs)   bands (ev):

    -0.8614  -0.1822   5.4952   7.9217  10.8429  11.7041  13.1111  14.8037

          k = 0.0000-0.5774 0.1458 (  1520 PWs)   bands (ev):

    -0.6695   0.0079   5.5640   6.6796   9.0965  12.4282  14.9041  16.3351

          k = 0.0000-0.5774 0.2916 (  1522 PWs)   bands (ev):

    -0.1889   0.4582   4.9158   5.7092   7.2078  13.1405  17.0372  17.3525

          k = 0.0000-0.5774-0.4375 (  1516 PWs)   bands (ev):

     0.1383   0.7370   4.1143   5.7860   6.4213  13.6087  16.4009  16.7401

          k = 0.1250 0.2165 0.0000 (  1515 PWs)   bands (ev):

    -3.9844   5.3460   5.5298   6.2248  10.2094  14.4261  15.2680  15.3180

          k = 0.1250 0.2165 0.1458 (  1509 PWs)   bands (ev):

    -3.7552   4.0565   5.4747   6.3334  12.1705  13.8594  14.6114  15.9377

          k = 0.1250 0.2165 0.2916 (  1519 PWs)   bands (ev):

    -3.1699   2.0595   5.7664   6.5317  12.4606  14.6900  15.9084  16.2715

          k = 0.1250 0.2165-0.4375 (  1514 PWs)   bands (ev):

    -2.7538   1.1326   5.9356   6.6371  11.8865  15.0591  16.4051  16.4295

          k = 0.1250 0.3608 0.0000 (  1513 PWs)   bands (ev):

    -2.9106   3.1057   5.0324   6.5505  11.2208  13.1567  13.9984  16.0996

          k = 0.1250 0.3608 0.1458 (  1523 PWs)   bands (ev):

    -2.6939   3.2563   5.0248   5.2571  11.6601  13.1157  14.4331  16.9108

          k = 0.1250 0.3608 0.2916 (  1516 PWs)   bands (ev):

    -2.1479   3.1904   3.6306   5.3702  10.0246  14.5676  15.4120  17.1183

          k = 0.1250 0.3608-0.4375 (  1520 PWs)   bands (ev):

    -1.7714   2.3272   3.8321   5.4900   9.3446  14.6234  15.1152  18.4114

          k = 0.1250 0.5052 0.0000 (  1525 PWs)   bands (ev):

    -1.3620   0.7836   4.4771   7.8302  11.1458  12.4524  13.4322  15.3673

          k = 0.1250 0.5052 0.1458 (  1525 PWs)   bands (ev):

    -1.1629   0.9607   4.5805   6.5263   9.5830  13.6411  14.6880  16.1015

          k = 0.1250 0.5052 0.2916 (  1521 PWs)   bands (ev):

    -0.6692   1.3831   4.6826   4.8406   7.7663  14.0029  15.0005  18.1000

          k = 0.1250 0.5052-0.4375 (  1524 PWs)   bands (ev):

    -0.3388   1.6488   3.8888   4.9461   7.0030  13.7697  14.8924  19.7839

          k = 0.2500 0.4330 0.0000 (  1521 PWs)   bands (ev):

    -1.6086   1.9919   3.0869   7.7486  11.4731  12.4658  14.7864  16.0723

          k = 0.2500 0.4330 0.1458 (  1524 PWs)   bands (ev):

    -1.4068   2.1570   3.2174   6.4020  10.0911  14.2592  14.9238  16.2979

          k = 0.2500 0.4330 0.2916 (  1523 PWs)   bands (ev):

    -0.9056   2.5531   3.5050   4.5602   8.3694  13.1457  16.9231  17.8409

          k = 0.2500 0.4330-0.4375 (  1522 PWs)   bands (ev):

    -0.5699   2.8026   3.6859   3.7148   7.6439  12.4660  17.3332  18.2738

          k = 0.2500 0.5774 0.0000 (  1531 PWs)   bands (ev):

    -0.1417   0.4672   2.4962   8.8314  10.2076  13.5905  14.0184  16.3089

          k = 0.2500 0.5774 0.1458 (  1522 PWs)   bands (ev):

     0.0438   0.6469   2.6390   7.5488   8.8182  14.3148  15.3856  15.6557

          k = 0.2500 0.5774 0.2916 (  1532 PWs)   bands (ev):

     0.5033   1.0760   2.9621   5.7857   7.0333  12.4392  17.2487  18.5515

          k = 0.2500 0.5774-0.4375 (  1536 PWs)   bands (ev):

     0.8096   1.3451   3.1521   5.0016   6.2651  11.7177  17.6044  20.6106

     the Fermi energy is     7.6694 ev

!    total energy              =     -14.01815417 Ry
     Harris-Foulkes estimate   =     -14.01815417 Ry
     estimated scf accuracy    <          7.6E-11 Ry

     The total energy is the sum of the following terms:

     one-electron contribution =       4.76065381 Ry
     hartree contribution      =       1.93620678 Ry
     xc contribution           =      -6.26545954 Ry
     ewald contribution        =     -14.44955522 Ry

     convergence has been achieved in  10 iterations

     Forces acting on atoms (cartesian axes, Ry/au):

     atom    1 type  2   force =     0.00000000    0.00000000   -0.00000000
     atom    2 type  1   force =     0.00000000    0.00000000    0.00000000
     atom    3 type  1   force =     0.00000000    0.00000000    0.00000000

     Total force =     0.000000     Total SCF correction =     0.000000


     Computing stress (Cartesian axis) and pressure

          total   stress  (Ry/bohr**3)                   (kbar)     P=        0.09
   0.00000065   0.00000000   0.00000000            0.10        0.00        0.00
   0.00000000   0.00000065   0.00000000            0.00        0.10        0.00
   0.00000000   0.00000000   0.00000043            0.00        0.00        0.06


     BFGS Geometry Optimization

     bfgs converged in   1 scf cycles and   0 bfgs steps
     (criteria: energy <  1.0E-04 Ry, force <  1.0E-03Ry/Bohr, cell <  5.0E-01kbar)

     End of BFGS Geometry Optimization

     Final enthalpy =     -14.0181541747 Ry
Begin final coordinates
     new unit-cell volume =    193.70241 a.u.^3 (    28.70374 Ang^3 )
     density =      2.65692 g/cm^3

CELL_PARAMETERS (angstrom)
   3.072263267  -0.000000000   0.000000000
  -1.536131635   2.660657665  -0.000000000
   0.000000000   0.000000000   3.511486466

ATOMIC_POSITIONS (crystal)
Mg            0.0000000000        0.0000000000        0.0000000000
B             0.3333330000        0.6666670000        0.5000000000
B             0.6666670000        0.3333330000        0.5000000000
End final coordinates



     Writing output data file ./pwscf.save/

     Final scf calculation at the relaxed structure.
     The G-vectors are recalculated for the final unit cell
     Results may differ from those at the preceding step.

     G-vector sticks info
     --------------------
     sticks:   dense  smooth     PW     G-vecs:    dense   smooth      PW
     Sum         559     559    163                12183    12183    2017



     bravais-lattice index     =            0
     lattice parameter (alat)  =       5.8057  a.u.
     unit-cell volume          =     193.7024 (a.u.)^3
     number of atoms/cell      =            3
     number of atomic types    =            2
     number of electrons       =         8.00
     number of Kohn-Sham states=            8
     kinetic-energy cutoff     =      60.0000  Ry
     charge density cutoff     =     240.0000  Ry
     convergence threshold     =      3.0E-10
     mixing beta               =       0.3000
     number of iterations used =            8  plain     mixing
     Exchange-correlation= PBE
                           (   1   4   3   4   0   0   0)

     celldm(1)=   5.805736  celldm(2)=   0.000000  celldm(3)=   0.000000
     celldm(4)=   0.000000  celldm(5)=   0.000000  celldm(6)=   0.000000

     crystal axes: (cart. coord. in units of alat)
               a(1) = (   1.000000  -0.000000   0.000000 )  
               a(2) = (  -0.500000   0.866025  -0.000000 )  
               a(3) = (   0.000000   0.000000   1.142964 )  

     reciprocal axes: (cart. coord. in units 2 pi/alat)
               b(1) = (  1.000000  0.577350 -0.000000 )  
               b(2) = (  0.000000  1.154701 -0.000000 )  
               b(3) = (  0.000000  0.000000  0.874918 )  


     PseudoPot. # 1 for B  read from file:
     ./B.pbe-nc.UPF
     MD5 check sum: 75cd07c0a87b9b912465967514cf4679
     Pseudo is Norm-conserving, Zval =  3.0
     Generated using "atomic" code by A. Dal Corso v.5.0.99 svn rev. 10869
     Using radial grid of 1059 points,  1 beta functions with: 
                l(1) =   1

     PseudoPot. # 2 for Mg read from file:
     ./Mg.pbe-n-nc.UPF
     MD5 check sum: fdc482938bc77a1b5407024e0eeca3bc
     Pseudo is Norm-conserving + core correction, Zval =  2.0
     Generated using "atomic" code by A. Dal Corso v.5.0.99 svn rev. 10869
     Using radial grid of 1129 points,  2 beta functions with: 
                l(1) =   0
                l(2) =   1

     atomic species   valence    mass     pseudopotential
        B              3.00    10.81100     B ( 1.00)
        Mg             2.00    24.30500     Mg( 1.00)

     24 Sym. Ops., with inversion, found



   Cartesian axes

     site n.     atom                  positions (alat units)
         1           Mg  tau(   1) = (   0.0000000   0.0000000   0.0000000  )
         2           B   tau(   2) = (  -0.0000005   0.5773505   0.5714820  )
         3           B   tau(   3) = (   0.5000005   0.2886748   0.5714820  )

     number of k points=    40 (tetrahedron method)
                       cart. coord. in units 2pi/alat
        k(    1) = (   0.0000000   0.0000000   0.0000000), wk =   0.0052083
        k(    2) = (   0.0000000   0.0000000   0.1458197), wk =   0.0104167
        k(    3) = (   0.0000000   0.0000000   0.2916394), wk =   0.0104167
        k(    4) = (   0.0000000   0.0000000  -0.4374591), wk =   0.0052083
        k(    5) = (   0.0000000   0.1443376   0.0000000), wk =   0.0312500
        k(    6) = (   0.0000000   0.1443376   0.1458197), wk =   0.0625000
        k(    7) = (   0.0000000   0.1443376   0.2916394), wk =   0.0625000
        k(    8) = (   0.0000000   0.1443376  -0.4374591), wk =   0.0312500
        k(    9) = (   0.0000000   0.2886752   0.0000000), wk =   0.0312500
        k(   10) = (   0.0000000   0.2886752   0.1458197), wk =   0.0625000
        k(   11) = (   0.0000000   0.2886752   0.2916394), wk =   0.0625000
        k(   12) = (   0.0000000   0.2886752  -0.4374591), wk =   0.0312500
        k(   13) = (   0.0000000   0.4330128   0.0000000), wk =   0.0312500
        k(   14) = (   0.0000000   0.4330128   0.1458197), wk =   0.0625000
        k(   15) = (   0.0000000   0.4330128   0.2916394), wk =   0.0625000
        k(   16) = (   0.0000000   0.4330128  -0.4374591), wk =   0.0312500
        k(   17) = (   0.0000000  -0.5773503   0.0000000), wk =   0.0156250
        k(   18) = (   0.0000000  -0.5773503   0.1458197), wk =   0.0312500
        k(   19) = (   0.0000000  -0.5773503   0.2916394), wk =   0.0312500
        k(   20) = (   0.0000000  -0.5773503  -0.4374591), wk =   0.0156250
        k(   21) = (   0.1250000   0.2165064   0.0000000), wk =   0.0312500
        k(   22) = (   0.1250000   0.2165064   0.1458197), wk =   0.0625000
        k(   23) = (   0.1250000   0.2165064   0.2916394), wk =   0.0625000
        k(   24) = (   0.1250000   0.2165064  -0.4374591), wk =   0.0312500
        k(   25) = (   0.1250000   0.3608440   0.0000000), wk =   0.0625000
        k(   26) = (   0.1250000   0.3608440   0.1458197), wk =   0.1250000
        k(   27) = (   0.1250000   0.3608440   0.2916394), wk =   0.1250000
        k(   28) = (   0.1250000   0.3608440  -0.4374591), wk =   0.0625000
        k(   29) = (   0.1250000   0.5051816   0.0000000), wk =   0.0625000
        k(   30) = (   0.1250000   0.5051816   0.1458197), wk =   0.1250000
        k(   31) = (   0.1250000   0.5051816   0.2916394), wk =   0.1250000
        k(   32) = (   0.1250000   0.5051816  -0.4374591), wk =   0.0625000
        k(   33) = (   0.2500000   0.4330128   0.0000000), wk =   0.0312500
        k(   34) = (   0.2500000   0.4330128   0.1458197), wk =   0.0625000
        k(   35) = (   0.2500000   0.4330128   0.2916394), wk =   0.0625000
        k(   36) = (   0.2500000   0.4330128  -0.4374591), wk =   0.0312500
        k(   37) = (   0.2500000   0.5773503   0.0000000), wk =   0.0312500
        k(   38) = (   0.2500000   0.5773503   0.1458197), wk =   0.0625000
        k(   39) = (   0.2500000   0.5773503   0.2916394), wk =   0.0625000
        k(   40) = (   0.2500000   0.5773503  -0.4374591), wk =   0.0312500

     Dense  grid:    12183 G-vectors     FFT dimensions: (  30,  30,  36)

     Estimated max dynamical RAM per process >      10.56 MB

     Estimated total dynamical RAM >     211.27 MB

     Initial potential from superposition of free atoms

     starting charge    7.99851, renormalised to    8.00000
     Starting wfcs are   12 randomized atomic wfcs

     total cpu time spent up to now is        9.3 secs

     Self-consistent Calculation

     iteration #  1     ecut=    60.00 Ry     beta= 0.30
     Davidson diagonalization with overlap
     ethr =  1.00E-06,  avg # of iterations =  9.6

     total cpu time spent up to now is        9.8 secs

     total energy              =     -14.02392211 Ry
     Harris-Foulkes estimate   =     -14.14220383 Ry
     estimated scf accuracy    <       0.31413432 Ry

     iteration #  2     ecut=    60.00 Ry     beta= 0.30
     Davidson diagonalization with overlap
     ethr =  3.93E-03,  avg # of iterations =  1.0

     total cpu time spent up to now is       10.0 secs

     total energy              =     -14.00209082 Ry
     Harris-Foulkes estimate   =     -14.03990818 Ry
     estimated scf accuracy    <       0.06696079 Ry

     iteration #  3     ecut=    60.00 Ry     beta= 0.30
     Davidson diagonalization with overlap
     ethr =  8.37E-04,  avg # of iterations =  2.2

     total cpu time spent up to now is       10.3 secs

     total energy              =     -14.01805578 Ry
     Harris-Foulkes estimate   =     -14.01884035 Ry
     estimated scf accuracy    <       0.00337168 Ry

     iteration #  4     ecut=    60.00 Ry     beta= 0.30
     Davidson diagonalization with overlap
     ethr =  4.21E-05,  avg # of iterations =  2.8

     total cpu time spent up to now is       10.6 secs

     total energy              =     -14.01686598 Ry
     Harris-Foulkes estimate   =     -14.02274263 Ry
     estimated scf accuracy    <       0.01287486 Ry

     iteration #  5     ecut=    60.00 Ry     beta= 0.30
     Davidson diagonalization with overlap
     ethr =  4.21E-05,  avg # of iterations =  2.1

     total cpu time spent up to now is       10.8 secs

     total energy              =     -14.01807075 Ry
     Harris-Foulkes estimate   =     -14.01835787 Ry
     estimated scf accuracy    <       0.00059649 Ry

     iteration #  6     ecut=    60.00 Ry     beta= 0.30
     Davidson diagonalization with overlap
     ethr =  7.46E-06,  avg # of iterations =  2.0

     total cpu time spent up to now is       11.0 secs

     total energy              =     -14.01814809 Ry
     Harris-Foulkes estimate   =     -14.01815510 Ry
     estimated scf accuracy    <       0.00001412 Ry

     iteration #  7     ecut=    60.00 Ry     beta= 0.30
     Davidson diagonalization with overlap
     ethr =  1.77E-07,  avg # of iterations =  2.5

     total cpu time spent up to now is       11.2 secs

     total energy              =     -14.01815417 Ry
     Harris-Foulkes estimate   =     -14.01815424 Ry
     estimated scf accuracy    <       0.00000025 Ry

     iteration #  8     ecut=    60.00 Ry     beta= 0.30
     Davidson diagonalization with overlap
     ethr =  3.14E-09,  avg # of iterations =  1.7

     total cpu time spent up to now is       11.4 secs

     total energy              =     -14.01815416 Ry
     Harris-Foulkes estimate   =     -14.01815420 Ry
     estimated scf accuracy    <       0.00000008 Ry

     iteration #  9     ecut=    60.00 Ry     beta= 0.30
     Davidson diagonalization with overlap
     ethr =  1.04E-09,  avg # of iterations =  1.6

     total cpu time spent up to now is       11.6 secs

     total energy              =     -14.01815417 Ry
     Harris-Foulkes estimate   =     -14.01815417 Ry
     estimated scf accuracy    <          1.9E-09 Ry

     iteration # 10     ecut=    60.00 Ry     beta= 0.30
     Davidson diagonalization with overlap
     ethr =  2.40E-11,  avg # of iterations =  2.0

     total cpu time spent up to now is       11.8 secs

     total energy              =     -14.01815417 Ry
     Harris-Foulkes estimate   =     -14.01815417 Ry
     estimated scf accuracy    <          4.6E-10 Ry

     iteration # 11     ecut=    60.00 Ry     beta= 0.30
     Davidson diagonalization with overlap
     ethr =  5.78E-12,  avg # of iterations =  1.9

     total cpu time spent up to now is       12.0 secs

     End of self-consistent calculation

          k = 0.0000 0.0000 0.0000 (  1511 PWs)   bands (ev):

    -4.8038   4.7312   8.0806   8.0807   9.4161  14.1529  14.1530  15.9665

          k = 0.0000 0.0000 0.1458 (  1505 PWs)   bands (ev):

    -4.5650   3.2244   8.1695   8.1696  11.4762  14.2319  14.2319  15.8998

          k = 0.0000 0.0000 0.2916 (  1510 PWs)   bands (ev):

    -3.9480   1.1685   8.3583   8.3584  14.4031  14.4032  15.1273  15.7723

          k = 0.0000 0.0000-0.4375 (  1540 PWs)   bands (ev):

    -3.4978   0.1987   8.4589   8.4590  14.4968  14.4968  15.7113  17.7522

          k = 0.0000 0.1443 0.0000 (  1511 PWs)   bands (ev):

    -4.5294   4.9997   6.8110   7.4929   9.6622  13.8969  15.2891  16.7989

          k = 0.0000 0.1443 0.1458 (  1514 PWs)   bands (ev):

    -4.2940   3.5048   6.9239   7.5761  11.6770  14.0451  15.3757  15.4970

          k = 0.0000 0.1443 0.2916 (  1523 PWs)   bands (ev):

    -3.6877   1.4681   7.1654   7.7523  14.0933  14.4899  15.4824  15.5645

          k = 0.0000 0.1443-0.4375 (  1516 PWs)   bands (ev):

    -3.2492   0.5130   7.2994   7.8460  13.9256  14.4664  15.6687  17.8480

          k = 0.0000 0.2887 0.0000 (  1516 PWs)   bands (ev):

    -3.7137   4.3153   5.7885   6.4871  10.3865  13.1792  14.6139  17.0439

          k = 0.0000 0.2887 0.1458 (  1512 PWs)   bands (ev):

    -3.4877   4.2808   4.5128   6.5624  12.1238  13.1623  13.7923  17.9564

          k = 0.0000 0.2887 0.2916 (  1527 PWs)   bands (ev):

    -2.9125   2.3495   4.7858   6.7217  11.5565  13.7750  16.1544  18.0994

          k = 0.0000 0.2887-0.4375 (  1526 PWs)   bands (ev):

    -2.5070   1.4368   4.9723   6.8061  10.9514  14.1067  17.6432  18.3307

          k = 0.0000 0.4330 0.0000 (  1524 PWs)   bands (ev):

    -2.3832   1.7677   5.7536   6.9992  11.3399  12.2104  12.7785  15.8869

          k = 0.0000 0.4330 0.1458 (  1522 PWs)   bands (ev):

    -2.1723   1.9344   5.6272   5.8241  10.5496  12.5839  14.0172  17.3875

          k = 0.0000 0.4330 0.2916 (  1523 PWs)   bands (ev):

    -1.6447   2.3276   3.7437   5.9728   8.8480  13.3139  16.9183  18.0094

          k = 0.0000 0.4330-0.4375 (  1514 PWs)   bands (ev):

    -1.2851   2.5770   2.8807   6.0515   8.1294  13.7447  16.7430  16.9913

          k = 0.0000-0.5774 0.0000 (  1528 PWs)   bands (ev):

    -0.8614  -0.1822   5.4952   7.9217  10.8429  11.7041  13.1111  14.8037

          k = 0.0000-0.5774 0.1458 (  1520 PWs)   bands (ev):

    -0.6695   0.0079   5.5640   6.6796   9.0964  12.4282  14.9041  16.3351

          k = 0.0000-0.5774 0.2916 (  1522 PWs)   bands (ev):

    -0.1889   0.4582   4.9157   5.7092   7.2078  13.1405  17.0372  18.2590

          k = 0.0000-0.5774-0.4375 (  1516 PWs)   bands (ev):

     0.1383   0.7370   4.1143   5.7860   6.4213  13.6086  16.4009  16.7401

          k = 0.1250 0.2165 0.0000 (  1515 PWs)   bands (ev):

    -3.9844   5.3460   5.5298   6.2248  10.2094  14.4261  15.2680  15.3180

          k = 0.1250 0.2165 0.1458 (  1509 PWs)   bands (ev):

    -3.7552   4.0565   5.4746   6.3334  12.1705  13.8593  14.6114  15.9377

          k = 0.1250 0.2165 0.2916 (  1519 PWs)   bands (ev):

    -3.1699   2.0595   5.7664   6.5317  12.4606  14.6900  15.9084  16.2715

          k = 0.1250 0.2165-0.4375 (  1514 PWs)   bands (ev):

    -2.7539   1.1326   5.9355   6.6371  11.8865  15.0591  16.4051  16.4295

          k = 0.1250 0.3608 0.0000 (  1513 PWs)   bands (ev):

    -2.9106   3.1057   5.0324   6.5505  11.2208  13.1567  13.9984  16.0996

          k = 0.1250 0.3608 0.1458 (  1523 PWs)   bands (ev):

    -2.6939   3.2563   5.0248   5.2571  11.6601  13.1157  14.4331  16.9108

          k = 0.1250 0.3608 0.2916 (  1516 PWs)   bands (ev):

    -2.1479   3.1904   3.6306   5.3702  10.0246  14.5676  15.4120  17.1183

          k = 0.1250 0.3608-0.4375 (  1520 PWs)   bands (ev):

    -1.7714   2.3271   3.8321   5.4900   9.3446  14.6234  15.1152  18.4114

          k = 0.1250 0.5052 0.0000 (  1525 PWs)   bands (ev):

    -1.3620   0.7836   4.4771   7.8302  11.1458  12.4524  13.4322  15.3673

          k = 0.1250 0.5052 0.1458 (  1525 PWs)   bands (ev):

    -1.1629   0.9607   4.5805   6.5263   9.5830  13.6411  14.6880  16.1015

          k = 0.1250 0.5052 0.2916 (  1521 PWs)   bands (ev):

    -0.6692   1.3831   4.6826   4.8406   7.7663  14.0029  15.0005  18.1000

          k = 0.1250 0.5052-0.4375 (  1524 PWs)   bands (ev):

    -0.3388   1.6488   3.8888   4.9461   7.0030  13.7697  14.8924  19.7839

          k = 0.2500 0.4330 0.0000 (  1521 PWs)   bands (ev):

    -1.6086   1.9919   3.0869   7.7486  11.4731  12.4658  14.7864  16.0723

          k = 0.2500 0.4330 0.1458 (  1524 PWs)   bands (ev):

    -1.4068   2.1570   3.2174   6.4020  10.0911  14.2592  14.9238  16.2979

          k = 0.2500 0.4330 0.2916 (  1523 PWs)   bands (ev):

    -0.9056   2.5531   3.5050   4.5602   8.3694  13.1457  16.9231  17.8409

          k = 0.2500 0.4330-0.4375 (  1522 PWs)   bands (ev):

    -0.5699   2.8025   3.6859   3.7148   7.6439  12.4660  17.3332  18.2738

          k = 0.2500 0.5774 0.0000 (  1531 PWs)   bands (ev):

    -0.1417   0.4672   2.4962   8.8313  10.2076  13.5905  14.0184  16.3089

          k = 0.2500 0.5774 0.1458 (  1522 PWs)   bands (ev):

     0.0438   0.6468   2.6390   7.5488   8.8181  14.3148  15.3856  15.6556

          k = 0.2500 0.5774 0.2916 (  1532 PWs)   bands (ev):

     0.5033   1.0760   2.9621   5.7857   7.0333  12.4392  17.2487  18.5515

          k = 0.2500 0.5774-0.4375 (  1536 PWs)   bands (ev):

     0.8096   1.3451   3.1521   5.0016   6.2651  11.7177  17.6044  20.6106

     the Fermi energy is     7.6693 ev

!    total energy              =     -14.01815417 Ry
     Harris-Foulkes estimate   =     -14.01815417 Ry
     estimated scf accuracy    <          1.0E-11 Ry

     The total energy is the sum of the following terms:

     one-electron contribution =       4.76064993 Ry
     hartree contribution      =       1.93621195 Ry
     xc contribution           =      -6.26546084 Ry
     ewald contribution        =     -14.44955522 Ry

     convergence has been achieved in  11 iterations

     Forces acting on atoms (cartesian axes, Ry/au):

     atom    1 type  2   force =     0.00000000    0.00000000    0.00000000
     atom    2 type  1   force =     0.00000000    0.00000000    0.00000000
     atom    3 type  1   force =     0.00000000   -0.00000000    0.00000000

     Total force =     0.000000     Total SCF correction =     0.000000


     Computing stress (Cartesian axis) and pressure

          total   stress  (Ry/bohr**3)                   (kbar)     P=        0.09
   0.00000066   0.00000000   0.00000000            0.10        0.00        0.00
   0.00000000   0.00000066  -0.00000000            0.00        0.10       -0.00
   0.00000000   0.00000000   0.00000045            0.00        0.00        0.07


     Writing output data file ./pwscf.save/

     init_run     :      3.07s CPU      3.44s WALL (       2 calls)
     electrons    :      4.31s CPU      4.88s WALL (       2 calls)
     forces       :      1.34s CPU      1.36s WALL (       2 calls)
     stress       :      3.84s CPU      4.81s WALL (       2 calls)

     Called by init_run:
     wfcinit      :      0.04s CPU      0.05s WALL (       2 calls)
     potinit      :      1.34s CPU      1.71s WALL (       2 calls)
     hinit0       :      1.68s CPU      1.68s WALL (       2 calls)

     Called by electrons:
     c_bands      :      1.28s CPU      1.59s WALL (      21 calls)
     sum_band     :      2.30s CPU      2.37s WALL (      21 calls)
     v_of_rho     :      0.50s CPU      0.51s WALL (      23 calls)
     mix_rho      :      0.05s CPU      0.05s WALL (      21 calls)

     Called by c_bands:
     init_us_2    :      0.03s CPU      0.03s WALL (      96 calls)
     cegterg      :      0.95s CPU      0.97s WALL (      42 calls)

     Called by sum_band:

     Called by *egterg:
     h_psi        :      0.83s CPU      0.84s WALL (     147 calls)
     g_psi        :      0.00s CPU      0.00s WALL (     101 calls)
     cdiaghg      :      0.02s CPU      0.02s WALL (     143 calls)

     Called by h_psi:
     h_psi:calbec :      0.03s CPU      0.03s WALL (     147 calls)
     vloc_psi     :      0.77s CPU      0.78s WALL (     147 calls)
     add_vuspsi   :      0.02s CPU      0.03s WALL (     147 calls)

     General routines
     calbec       :      0.03s CPU      0.03s WALL (     167 calls)
     fft          :      0.16s CPU      0.17s WALL (     278 calls)
     ffts         :      0.01s CPU      0.01s WALL (      21 calls)
     fftw         :      0.83s CPU      0.85s WALL (    2122 calls)

     Parallel routines

     PWSCF        :     13.06s CPU     15.15s WALL


   This run was terminated on:   1:48:54  23Nov2019            

=------------------------------------------------------------------------------=
   JOB DONE.
=------------------------------------------------------------------------------=
