--------------------------------------------------------------------------
Open MPI's OFI driver detected multiple equidistant NICs from the current process,
but had insufficient information to ensure MPI processes fairly pick a NIC for use.
This may negatively impact performance. A more modern PMIx server is necessary to
resolve this issue.

Note: This message is displayed only when the OFI component's verbosity level is
1709394096 or higher.
--------------------------------------------------------------------------
--------------------------------------------------------------------------
WARNING: There was an error initializing an OpenFabrics device.

  Local host:   macloud1
  Local device: mlx4_0
--------------------------------------------------------------------------

     Program PWSCF v.6.7GPU starts on 29Jun2022 at 11:19:26 

     This program is part of the open-source Quantum ESPRESSO suite
     for quantum simulation of materials; please cite
         "P. Giannozzi et al., J. Phys.:Condens. Matter 21 395502 (2009);
         "P. Giannozzi et al., J. Phys.:Condens. Matter 29 465901 (2017);
         "P. Giannozzi et al., J. Chem. Phys. 152 154105 (2020);
          URL http://www.quantum-espresso.org", 
     in publications or presentations arising from this work. More details at
     http://www.quantum-espresso.org/quote

     Parallel version (MPI & OpenMP), running on      24 processor cores
     Number of MPI processes:                24
     Threads/MPI process:                     1

     MPI processes distributed on     1 nodes
     K-points division:     npool     =      24
     Reading input from band.in

     Current dimensions of program PWSCF are:
     Max number of different atomic species (ntypx) = 10
     Max number of k-points (npk) =  40000
     Max angular momentum in pseudopotentials (lmaxx) =  3

     Atomic positions and unit cell read from directory:
     ./pwscf.save/
     Atomic positions from file used, from input discarded

     file B.pbe-n-kjpaw_psl.0.1.upf: wavefunction(s)  2P renormalized
     file Mg.pbe-n-kjpaw_psl.0.3.0.upf: wavefunction(s)  3S renormalized
     Message from routine setup:
     using ibrav=0 with symmetry is DISCOURAGED, use correct ibrav instead

     Subspace diagonalization in iterative solution of the eigenvalue problem:
     a serial algorithm will be used


     G-vector sticks info
     --------------------
     sticks:   dense  smooth     PW     G-vecs:    dense   smooth      PW
     Sum         649     313    109                15395     5449    1023

     Using Slab Decomposition



     bravais-lattice index     =            0
     lattice parameter (alat)  =       5.8042  a.u.
     unit-cell volume          =     194.0373 (a.u.)^3
     number of atoms/cell      =            3
     number of atomic types    =            2
     number of electrons       =         8.00
     number of Kohn-Sham states=           15
     kinetic-energy cutoff     =      35.0000  Ry
     charge density cutoff     =     280.0000  Ry
     Exchange-correlation= SLA  PW   PBX  PBC
                           (   1   4   3   4   0   0   0)

     celldm(1)=   5.804205  celldm(2)=   0.000000  celldm(3)=   0.000000
     celldm(4)=   0.000000  celldm(5)=   0.000000  celldm(6)=   0.000000

     crystal axes: (cart. coord. in units of alat)
               a(1) = (   1.000000   0.000000   0.000000 )  
               a(2) = (  -0.500000   0.866025   0.000000 )  
               a(3) = (   0.000000   0.000000   1.145847 )  

     reciprocal axes: (cart. coord. in units 2 pi/alat)
               b(1) = (  1.000000  0.577350 -0.000000 )  
               b(2) = (  0.000000  1.154701  0.000000 )  
               b(3) = (  0.000000 -0.000000  0.872717 )  


     PseudoPot. # 1 for B  read from file:
     ../../../pseudo/B.pbe-n-kjpaw_psl.0.1.upf
     MD5 check sum: b4345a612e0782cca08559f453f3313f
     Pseudo is Projector augmented-wave + core cor, Zval =  3.0
     Generated using "atomic" code by A. Dal Corso  v.5.0.99 svn rev. 10869
     Shape of augmentation charge: BESSEL
     Using radial grid of 1059 points,  4 beta functions with: 
                l(1) =   0
                l(2) =   0
                l(3) =   1
                l(4) =   1
     Q(r) pseudized with 0 coefficients 


     PseudoPot. # 2 for Mg read from file:
     ../../../pseudo/Mg.pbe-n-kjpaw_psl.0.3.0.upf
     MD5 check sum: 9eaefceb6cf3903db1b93e4e5c6adf9a
     Pseudo is Projector augmented-wave + core cor, Zval =  2.0
     Generated using "atomic" code by A. Dal Corso  v.5.0.99 svn rev. 10869
     Shape of augmentation charge: PSQ
     Using radial grid of 1129 points,  4 beta functions with: 
                l(1) =   0
                l(2) =   0
                l(3) =   1
                l(4) =   1
     Q(r) pseudized with 0 coefficients 


     atomic species   valence    mass     pseudopotential
        B              3.00    10.81100     B ( 1.00)
        Mg             2.00    24.30500     Mg( 1.00)

     24 Sym. Ops., with inversion, found



   Cartesian axes

     site n.     atom                  positions (alat units)
         1           Mg  tau(   1) = (   0.0000000   0.0000000   0.0000000  )
         2           B   tau(   2) = (  -0.0000000   0.5773503   0.5729233  )
         3           B   tau(   3) = (   0.5000000   0.2886751   0.5729233  )

     number of k points=    78
                       cart. coord. in units 2pi/alat
        k(    1) = (   0.0000000   0.0000000   0.0000000), wk =   0.0256410
        k(    2) = (   0.0500000   0.0288675   0.0000000), wk =   0.0256410
        k(    3) = (   0.1000000   0.0577350   0.0000000), wk =   0.0256410
        k(    4) = (   0.1500000   0.0866025   0.0000000), wk =   0.0256410
        k(    5) = (   0.2000000   0.1154701   0.0000000), wk =   0.0256410
        k(    6) = (   0.2500000   0.1443376   0.0000000), wk =   0.0256410
        k(    7) = (   0.3000000   0.1732051   0.0000000), wk =   0.0256410
        k(    8) = (   0.3500000   0.2020726   0.0000000), wk =   0.0256410
        k(    9) = (   0.4000000   0.2309401   0.0000000), wk =   0.0256410
        k(   10) = (   0.4500000   0.2598076   0.0000000), wk =   0.0256410
        k(   11) = (   0.5000000   0.2886751   0.0000000), wk =   0.0256410
        k(   12) = (   0.4666670   0.3464107   0.0000000), wk =   0.0256410
        k(   13) = (   0.4333330   0.4041446   0.0000000), wk =   0.0256410
        k(   14) = (   0.4000000   0.4618802   0.0000000), wk =   0.0256410
        k(   15) = (   0.3666670   0.5196158   0.0000000), wk =   0.0256410
        k(   16) = (   0.3333330   0.5773497   0.0000000), wk =   0.0256410
        k(   17) = (   0.3055560   0.5292385   0.0000000), wk =   0.0256410
        k(   18) = (   0.2777780   0.4811256   0.0000000), wk =   0.0256410
        k(   19) = (   0.2500000   0.4330127   0.0000000), wk =   0.0256410
        k(   20) = (   0.2222220   0.3848998   0.0000000), wk =   0.0256410
        k(   21) = (   0.1944440   0.3367869   0.0000000), wk =   0.0256410
        k(   22) = (   0.1666670   0.2886757   0.0000000), wk =   0.0256410
        k(   23) = (   0.1388890   0.2405628   0.0000000), wk =   0.0256410
        k(   24) = (   0.1111110   0.1924499   0.0000000), wk =   0.0256410
        k(   25) = (   0.0833330   0.1443370   0.0000000), wk =   0.0256410
        k(   26) = (   0.0555560   0.0962258   0.0000000), wk =   0.0256410
        k(   27) = (   0.0277780   0.0481129   0.0000000), wk =   0.0256410
        k(   28) = (   0.0000000   0.0000000   0.0000000), wk =   0.0256410
        k(   29) = (   0.0000000   0.0000000   0.0623373), wk =   0.0256410
        k(   30) = (   0.0000000   0.0000000   0.1246738), wk =   0.0256410
        k(   31) = (   0.0000000   0.0000000   0.1870111), wk =   0.0256410
        k(   32) = (   0.0000000   0.0000000   0.2493475), wk =   0.0256410
        k(   33) = (   0.0000000   0.0000000   0.3116848), wk =   0.0256410
        k(   34) = (   0.0000000   0.0000000   0.3740213), wk =   0.0256410
        k(   35) = (   0.0000000   0.0000000   0.4363586), wk =   0.0256410
        k(   36) = (   0.0500000   0.0288675   0.4363586), wk =   0.0256410
        k(   37) = (   0.1000000   0.0577350   0.4363586), wk =   0.0256410
        k(   38) = (   0.1500000   0.0866025   0.4363586), wk =   0.0256410
        k(   39) = (   0.2000000   0.1154701   0.4363586), wk =   0.0256410
        k(   40) = (   0.2500000   0.1443376   0.4363586), wk =   0.0256410
        k(   41) = (   0.3000000   0.1732051   0.4363586), wk =   0.0256410
        k(   42) = (   0.3500000   0.2020726   0.4363586), wk =   0.0256410
        k(   43) = (   0.4000000   0.2309401   0.4363586), wk =   0.0256410
        k(   44) = (   0.4500000   0.2598076   0.4363586), wk =   0.0256410
        k(   45) = (   0.5000000   0.2886751   0.4363586), wk =   0.0256410
        k(   46) = (   0.4666670   0.3464107   0.4363586), wk =   0.0256410
        k(   47) = (   0.4333330   0.4041446   0.4363586), wk =   0.0256410
        k(   48) = (   0.4000000   0.4618802   0.4363586), wk =   0.0256410
        k(   49) = (   0.3666670   0.5196158   0.4363586), wk =   0.0256410
        k(   50) = (   0.3333330   0.5773497   0.4363586), wk =   0.0256410
        k(   51) = (   0.3055560   0.5292385   0.4363586), wk =   0.0256410
        k(   52) = (   0.2777780   0.4811256   0.4363586), wk =   0.0256410
        k(   53) = (   0.2500000   0.4330127   0.4363586), wk =   0.0256410
        k(   54) = (   0.2222220   0.3848998   0.4363586), wk =   0.0256410
        k(   55) = (   0.1944440   0.3367869   0.4363586), wk =   0.0256410
        k(   56) = (   0.1666670   0.2886757   0.4363586), wk =   0.0256410
        k(   57) = (   0.1388890   0.2405628   0.4363586), wk =   0.0256410
        k(   58) = (   0.1111110   0.1924499   0.4363586), wk =   0.0256410
        k(   59) = (   0.0833330   0.1443370   0.4363586), wk =   0.0256410
        k(   60) = (   0.0555560   0.0962258   0.4363586), wk =   0.0256410
        k(   61) = (   0.0277780   0.0481129   0.4363586), wk =   0.0256410
        k(   62) = (   0.0000000   0.0000000   0.4363586), wk =   0.0256410
        k(   63) = (   0.5000000   0.2886751   0.4363586), wk =   0.0256410
        k(   64) = (   0.5000000   0.2886751   0.3740213), wk =   0.0256410
        k(   65) = (   0.5000000   0.2886751   0.3116848), wk =   0.0256410
        k(   66) = (   0.5000000   0.2886751   0.2493475), wk =   0.0256410
        k(   67) = (   0.5000000   0.2886751   0.1870111), wk =   0.0256410
        k(   68) = (   0.5000000   0.2886751   0.1246738), wk =   0.0256410
        k(   69) = (   0.5000000   0.2886751   0.0623373), wk =   0.0256410
        k(   70) = (   0.5000000   0.2886751   0.0000000), wk =   0.0256410
        k(   71) = (   0.3333330   0.5773497   0.4363586), wk =   0.0256410
        k(   72) = (   0.3333330   0.5773497   0.3740213), wk =   0.0256410
        k(   73) = (   0.3333330   0.5773497   0.3116848), wk =   0.0256410
        k(   74) = (   0.3333330   0.5773497   0.2493475), wk =   0.0256410
        k(   75) = (   0.3333330   0.5773497   0.1870111), wk =   0.0256410
        k(   76) = (   0.3333330   0.5773497   0.1246738), wk =   0.0256410
        k(   77) = (   0.3333330   0.5773497   0.0623373), wk =   0.0256410
        k(   78) = (   0.3333330   0.5773497   0.0000000), wk =   0.0256410

     Dense  grid:    15395 G-vectors     FFT dimensions: (  32,  32,  36)

     Smooth grid:     5449 G-vectors     FFT dimensions: (  24,  24,  25)

     Estimated max dynamical RAM per process >       7.20 MB

     Estimated total dynamical RAM >     172.82 MB

     Check: negative core charge=   -0.000006

     The potential is recalculated from file :
     ./pwscf.save/charge-density

     Starting wfcs are   12 randomized atomic wfcs +    3 random wfcs
     Checking if some PAW data can be deallocated... 

     Band Structure Calculation
     Davidson diagonalization with overlap
At line 106 of file init_us_2_base.f90
Fortran runtime warning: An array temporary was created
At line 106 of file init_us_2_base.f90
Fortran runtime warning: An array temporary was created
At line 106 of file init_us_2_base.f90
Fortran runtime warning: An array temporary was created
At line 106 of file init_us_2_base.f90
Fortran runtime warning: An array temporary was created
At line 106 of file init_us_2_base.f90
Fortran runtime warning: An array temporary was created
At line 106 of file init_us_2_base.f90
Fortran runtime warning: An array temporary was created
At line 106 of file init_us_2_base.f90
Fortran runtime warning: An array temporary was created
At line 106 of file init_us_2_base.f90
Fortran runtime warning: An array temporary was created
At line 106 of file init_us_2_base.f90
Fortran runtime warning: An array temporary was created
At line 106 of file init_us_2_base.f90
Fortran runtime warning: An array temporary was created
At line 106 of file init_us_2_base.f90
Fortran runtime warning: An array temporary was created
At line 106 of file init_us_2_base.f90
Fortran runtime warning: An array temporary was created
At line 106 of file init_us_2_base.f90
Fortran runtime warning: An array temporary was created
At line 106 of file init_us_2_base.f90
Fortran runtime warning: An array temporary was created
At line 106 of file init_us_2_base.f90
Fortran runtime warning: An array temporary was created
At line 106 of file init_us_2_base.f90
Fortran runtime warning: An array temporary was created
At line 106 of file init_us_2_base.f90
Fortran runtime warning: An array temporary was created
At line 106 of file init_us_2_base.f90
Fortran runtime warning: An array temporary was created
At line 106 of file init_us_2_base.f90
Fortran runtime warning: An array temporary was created
At line 106 of file init_us_2_base.f90
Fortran runtime warning: An array temporary was created
At line 106 of file init_us_2_base.f90
Fortran runtime warning: An array temporary was created
At line 106 of file init_us_2_base.f90
Fortran runtime warning: An array temporary was created
At line 106 of file init_us_2_base.f90
Fortran runtime warning: An array temporary was created
At line 106 of file init_us_2_base.f90
Fortran runtime warning: An array temporary was created
At line 1740 of file mp.f90
Fortran runtime warning: An array temporary was created
At line 1740 of file mp.f90
Fortran runtime warning: An array temporary was created
At line 1740 of file mp.f90
Fortran runtime warning: An array temporary was created
At line 1740 of file mp.f90
Fortran runtime warning: An array temporary was created
At line 1740 of file mp.f90
Fortran runtime warning: An array temporary was created
At line 1740 of file mp.f90
Fortran runtime warning: An array temporary was created
At line 1740 of file mp.f90
Fortran runtime warning: An array temporary was created
At line 1740 of file mp.f90
Fortran runtime warning: An array temporary was created
At line 1740 of file mp.f90
Fortran runtime warning: An array temporary was created
At line 1740 of file mp.f90
Fortran runtime warning: An array temporary was created
At line 1740 of file mp.f90
Fortran runtime warning: An array temporary was created
At line 1740 of file mp.f90
Fortran runtime warning: An array temporary was created
At line 1740 of file mp.f90
Fortran runtime warning: An array temporary was created
At line 1740 of file mp.f90
Fortran runtime warning: An array temporary was created
At line 1740 of file mp.f90
Fortran runtime warning: An array temporary was created
At line 1740 of file mp.f90
Fortran runtime warning: An array temporary was created
At line 1740 of file mp.f90
Fortran runtime warning: An array temporary was created
At line 1740 of file mp.f90
Fortran runtime warning: An array temporary was created
At line 1740 of file mp.f90
Fortran runtime warning: An array temporary was created
At line 1740 of file mp.f90
Fortran runtime warning: An array temporary was created
At line 1740 of file mp.f90
Fortran runtime warning: An array temporary was created
At line 1740 of file mp.f90
Fortran runtime warning: An array temporary was created
At line 1740 of file mp.f90
Fortran runtime warning: An array temporary was created
At line 1740 of file mp.f90
Fortran runtime warning: An array temporary was created

     ethr =  1.25E-08,  avg # of iterations = 31.6

     total cpu time spent up to now is        2.0 secs

     End of band structure calculation

          k = 0.0000 0.0000 0.0000 (   709 PWs)   bands (ev):

    -4.7856   4.7169   8.0859   8.0859   9.3182  14.0810  14.0810  15.9413
    17.7543  20.4796  23.9308  23.9308  26.6162  26.6162  26.7807

          k = 0.0500 0.0289 0.0000 (   705 PWs)   bands (ev):

    -4.7417   4.7598   7.8541   7.9764   9.3567  14.0599  14.2792  16.0333
    17.5942  20.7062  23.6948  23.8169  25.4145  26.0211  27.2808

          k = 0.1000 0.0577 0.0000 (   701 PWs)   bands (ev):

    -4.6100   4.8879   7.2293   7.6889   9.4765  13.9409  14.8318  16.3178
    17.1335  21.3356  23.1424  23.5336  24.1964  25.1887  27.6912

          k = 0.1500 0.0866 0.0000 (   689 PWs)   bands (ev):

    -4.3913   5.1004   6.3586   7.3058   9.6782  13.7025  15.6527  16.4285
    16.7092  22.2482  22.5441  23.1669  23.1820  24.4226  27.8041

          k = 0.2000 0.1155 0.0000 (   687 PWs)   bands (ev):

    -4.0864   5.3639   5.3950   6.8974   9.9557  13.4067  15.5523  16.6610
    17.0106  22.0993  22.3314  22.8301  23.3346  23.7502  27.7398

          k = 0.2500 0.1443 0.0000 (   681 PWs)   bands (ev):

    -3.6967   4.3221   5.7684   6.5101  10.2984  13.1165  14.5810  17.0309
    17.7950  21.6723  22.0182  22.5173  23.1783  24.4137  27.6449

          k = 0.3000 0.1732 0.0000 (   674 PWs)   bands (ev):

    -3.2245   3.2806   6.1711   6.2127  10.6867  12.8763  13.5820  16.7206
    18.9960  21.1641  22.2709  22.3373  22.7091  25.3062  27.5615

          k = 0.3500 0.2021 0.0000 (   680 PWs)   bands (ev):

    -2.6727   2.2677   5.8961   6.7126  11.0815  12.6137  12.7294  16.1912
    20.1608  20.7862  22.1356  22.3435  22.9532  25.8483  27.4630

          k = 0.4000 0.2309 0.0000 (   676 PWs)   bands (ev):

    -2.0471   1.3043   5.6947   7.2352  11.4063  11.7396  12.7329  15.5897
    20.5255  21.0398  22.0821  22.2754  23.7315  26.0274  27.2359

          k = 0.4500 0.2598 0.0000 (   676 PWs)   bands (ev):

    -1.3668   0.4182   5.5721   7.6940  11.0635  11.5818  12.8979  15.0612
    20.3718  21.3330  21.9252  22.8043  24.5653  25.8822  26.9157

          k = 0.5000 0.2887 0.0000 (   676 PWs)   bands (ev):

    -0.8559  -0.1616   5.5309   7.8975  10.7860  11.6276  13.0221  14.8253
    20.3209  21.3711  21.8728  23.1007  25.2856  25.4107  26.7762

          k = 0.4667 0.3464 0.0000 (   670 PWs)   bands (ev):

    -0.8046  -0.1091   5.1712   7.9627  10.7585  12.0145  13.0580  14.9086
    19.4025  21.0296  22.8306  22.9613  24.9613  25.5393  27.1218

          k = 0.4333 0.4041 0.0000 (   672 PWs)   bands (ev):

    -0.6507   0.0448   4.3114   8.1567  10.6588  12.8833  13.1649  15.1999
    18.2053  20.2827  22.2388  23.8694  24.6693  26.0678  28.1105

          k = 0.4000 0.4619 0.0000 (   674 PWs)   bands (ev):

    -0.3945   0.2837   3.2750   8.4785  10.4408  13.3408  13.6699  15.8154
    17.2635  19.5765  21.5615  22.6318  26.4506  26.6158  29.3716

          k = 0.3667 0.5196 0.0000 (   680 PWs)   bands (ev):

    -0.0365   0.5355   2.2952   8.9264  10.0563  13.5812  13.9999  16.5426
    16.6855  19.4405  20.8889  21.4794  27.0409  28.1109  30.2751

          k = 0.3333 0.5773 0.0000 (   666 PWs)   bands (ev):

     0.4224   0.4224   1.8190   9.4983   9.4983  13.8784  13.8784  16.4991
    16.7737  20.2655  20.2655  20.6561  27.2200  29.3612  29.3612

          k = 0.3056 0.5292 0.0000 (   672 PWs)   bands (ev):

    -0.1776   0.8809   2.0544   8.9354  10.0660  13.5017  14.1581  16.6152
    16.6913  19.8026  19.9650  21.7359  27.0678  28.5987  29.8584

          k = 0.2778 0.4811 0.0000 (   678 PWs)   bands (ev):

    -0.8955   1.4071   2.5300   8.3300  10.7129  12.9756  14.4524  16.4615
    16.9364  19.4082  19.7739  23.1465  26.5937  27.8664  29.8753

          k = 0.2500 0.4330 0.0000 (   673 PWs)   bands (ev):

    -1.5955   1.9992   3.1104   7.7211  11.4346  12.3899  14.7394  16.0952
    17.4269  19.0969  19.9013  24.4497  25.8229  27.1874  29.6081

          k = 0.2222 0.3849 0.0000 (   677 PWs)   bands (ev):

    -2.2432   2.6544   3.7576   7.1366  11.8027  12.2232  14.9888  15.6575
    18.0602  18.8766  20.2603  24.8489  25.3602  26.5777  29.2223

          k = 0.1944 0.3368 0.0000 (   669 PWs)   bands (ev):

    -2.8263   3.3684   4.4509   6.5964  11.2485  13.0687  15.1687  15.2192
    18.7304  18.8181  20.7567  23.8184  25.5913  26.0554  28.8104

          k = 0.1667 0.2887 0.0000 (   683 PWs)   bands (ev):

    -3.3388   4.1338   5.1695   6.1123  10.7467  13.9530  14.8243  15.2566
    18.5708  19.6881  21.3237  22.9186  25.1272  25.6363  28.4156

          k = 0.1389 0.2406 0.0000 (   683 PWs)   bands (ev):

    -3.7767   4.9398   5.6937   5.8895  10.3105  14.5015  14.8530  15.2525
    18.2309  20.6619  21.9132  22.3868  24.2468  25.3442  28.0630

          k = 0.1111 0.1924 0.0000 (   689 PWs)   bands (ev):

    -4.1379   5.3457   5.7675   6.5772   9.9479  14.2654  15.1599  15.7299
    17.6201  21.7325  22.3492  22.4587  23.2418  25.2071  27.7641

          k = 0.0833 0.1443 0.0000 (   693 PWs)   bands (ev):

    -4.4204   5.0722   6.5823   7.1889   9.6654  14.1241  14.9639  16.5291
    16.9004  22.1147  22.6935  22.8938  23.1007  25.2650  27.5254

          k = 0.0556 0.0962 0.0000 (   697 PWs)   bands (ev):

    -4.6230   4.8753   7.3215   7.6729   9.4672  14.0708  14.6329  16.3283
    17.1791  21.2747  23.2176  23.5220  24.1357  25.5605  27.3467

          k = 0.0278 0.0481 0.0000 (   705 PWs)   bands (ev):

    -4.7449   4.7566   7.8738   7.9810   9.3539  14.0719  14.2543  16.0272
    17.6060  20.6897  23.7139  23.8219  25.4388  26.1081  27.2051

          k = 0.0000 0.0000 0.0000 (   709 PWs)   bands (ev):

    -4.7856   4.7169   8.0859   8.0859   9.3182  14.0810  14.0810  15.9413
    17.7543  20.4796  23.9308  23.9308  26.6162  26.6162  26.7807

          k = 0.0000 0.0000 0.0623 (   697 PWs)   bands (ev):

    -4.7413   4.3473   8.1036   8.1036   9.7911  14.0958  14.0958  15.9318
    17.7558  20.5219  23.4783  23.4783  25.8721  25.8721  26.6872

          k = 0.0000 0.0000 0.1247 (   691 PWs)   bands (ev):

    -4.6110   3.5227   8.1522   8.1522  10.9246  14.1376  14.1376  15.9054
    17.7554  20.6458  22.5814  22.5814  24.9106  24.9106  26.4197

          k = 0.0000 0.0000 0.1870 (   691 PWs)   bands (ev):

    -4.4031   2.5856   8.2247   8.2247  12.3726  14.1998  14.1998  15.8686
    17.7536  20.8408  21.6702  21.6702  24.0615  24.0615  26.0089

          k = 0.0000 0.0000 0.2493 (   684 PWs)   bands (ev):

    -4.1357   1.6957   8.3074   8.3074  13.9677  14.2728  14.2728  15.8273
    17.7481  20.8890  20.8890  21.0867  23.3662  23.3662  25.4992

          k = 0.0000 0.0000 0.3117 (   684 PWs)   bands (ev):

    -3.8454   0.9411   8.3852   8.3852  14.3415  14.3415  15.5857  15.7895
    17.7433  20.2971  20.2971  21.3458  22.8483  22.8483  24.8692

          k = 0.0000 0.0000 0.3740 (   684 PWs)   bands (ev):

    -3.6005   0.4117   8.4403   8.4403  14.3908  14.3908  15.7639  17.0039
    17.7406  19.9285  19.9285  21.5554  22.5277  22.5277  24.0196

          k = 0.0000 0.0000 0.4364 (   684 PWs)   bands (ev):

    -3.4999   0.2155   8.4616   8.4616  14.4076  14.4076  15.7557  17.6545
    17.7397  19.8033  19.8033  21.6368  22.4190  22.4190  23.4811

          k = 0.0500 0.0289 0.4364 (   680 PWs)   bands (ev):

    -3.4601   0.2658   8.2497   8.3464  14.4177  14.6138  15.3779  17.6925
    17.8398  19.5831  19.9071  21.8196  22.3395  22.7299  23.5407

          k = 0.1000 0.0577 0.4364 (   682 PWs)   bands (ev):

    -3.3410   0.4162   7.6792   8.0460  14.4035  14.4761  15.1829  17.7995
    18.1495  19.1078  19.8329  22.2884  22.5366  23.4770  23.7612

          k = 0.1500 0.0866 0.4364 (   678 PWs)   bands (ev):

    -3.1426   0.6654   6.8754   7.6477  13.3505  14.3193  16.0255  17.9494
    18.5848  18.6578  19.4101  22.8053  23.1785  24.2932  24.4514

          k = 0.2000 0.1155 0.4364 (   682 PWs)   bands (ev):

    -2.8654   1.0109   5.9481   7.2247  12.1486  14.1724  17.0614  18.0287
    18.0943  19.0120  19.3109  23.1626  23.8916  25.2316  25.5701

          k = 0.2500 0.1443 0.4364 (   690 PWs)   bands (ev):

    -2.5101   1.4487   4.9711   6.8246  10.9392  13.9994  17.6647  17.7964
    18.2336  19.0230  20.0482  23.4042  24.3817  26.3971  26.7997

          k = 0.3000 0.1732 0.4364 (   680 PWs)   bands (ev):

    -2.0778   1.9722   3.9912   6.4759   9.7604  13.8318  17.3073  17.3977
    19.3433  19.4956  20.8238  23.5914  24.5046  27.5366  28.1185

          k = 0.3500 0.2021 0.4364 (   678 PWs)   bands (ev):

    -1.5704   2.5692   3.0372   6.1933   8.6414  13.6880  17.0267  17.0333
    19.7690  20.7946  21.5925  23.7231  24.2978  28.3428  29.4990

          k = 0.4000 0.2309 0.4364 (   674 PWs)   bands (ev):

    -0.9924   2.1306   3.2119   5.9864   7.6202  13.5793  16.7588  16.8253
    20.2163  22.0504  22.3111  23.7672  23.9183  28.6156  29.7509

          k = 0.4500 0.2598 0.4364 (   672 PWs)   bands (ev):

    -0.3599   1.2973   3.8186   5.8608   6.7841  13.5121  16.5906  16.7042
    20.5929  22.9259  23.0861  23.5471  23.6756  28.5818  28.9128

          k = 0.5000 0.2887 0.4364 (   676 PWs)   bands (ev):

     0.1220   0.7477   4.1205   5.8185   6.4053  13.4894  16.5345  16.6638
    20.7513  23.3198  23.3854  23.4673  23.5273  28.5327  28.5390

          k = 0.4667 0.3464 0.4364 (   674 PWs)   bands (ev):

     0.1702   0.7956   4.1835   5.5262   6.4194  13.8807  14.9533  18.3434
    20.7954  22.6898  23.0861  23.4335  24.3158  28.4397  28.5182

          k = 0.4333 0.4041 0.4364 (   682 PWs)   bands (ev):

     0.3144   0.9364   4.3719   4.7925   6.4409  13.4932  14.9079  20.0397
    20.9210  21.8993  22.4484  23.6469  25.1373  28.2720  28.4475

          k = 0.4000 0.4619 0.4364 (   674 PWs)   bands (ev):

     0.5546   1.1581   3.8662   4.6857   6.4004  12.3147  16.3207  21.1205
    21.1428  21.3094  21.5618  24.3378  25.9517  28.1278  28.3020

          k = 0.3667 0.5196 0.4364 (   678 PWs)   bands (ev):

     0.8903   1.4035   2.9557   5.1247   6.1803  11.5491  17.9296  20.4209
    20.5665  21.3757  21.7548  25.8146  26.7363  27.9828  28.0410

          k = 0.3333 0.5773 0.4364 (   672 PWs)   bands (ev):

     1.3205   1.3205   2.4899   5.6884   5.6884  11.2948  19.4166  19.7416
    19.7416  21.6499  21.6499  27.2976  27.5102  27.5102  27.8016

          k = 0.3056 0.5292 0.4364 (   686 PWs)   bands (ev):

     0.7513   1.7502   2.7162   5.0970   6.2526  11.4482  18.7042  19.2066
    20.9706  21.3521  21.8496  26.8713  26.8729  27.0325  27.6524

          k = 0.2778 0.4811 0.4364 (   686 PWs)   bands (ev):

     0.0771   2.2435   3.1621   4.4186   6.9021  11.8558  17.9341  18.7061
    20.9468  21.9688  22.1301  26.1090  26.2183  26.4403  27.5867

          k = 0.2500 0.4330 0.4364 (   674 PWs)   bands (ev):

    -0.5748   2.7987   3.7030   3.7188   7.6358  12.4494  17.2204  18.2374
    20.4825  21.9601  22.9767  25.1523  25.4400  26.2510  27.6778

          k = 0.2222 0.3849 0.4364 (   678 PWs)   bands (ev):

    -1.1747   3.0413   3.4126   4.3065   8.4512  13.1820  16.5739  17.7969
    19.9976  21.8112  23.4260  24.0450  24.7177  26.2832  27.8520

          k = 0.1944 0.3368 0.4364 (   682 PWs)   bands (ev):

    -1.7123   2.4126   4.0810   4.9553   9.3449  14.0218  16.0035  17.3810
    19.5231  21.5620  22.8522  23.5549  24.0630  26.4379  27.7705

          k = 0.1667 0.2887 0.4364 (   682 PWs)   bands (ev):

    -2.1827   1.8486   4.7976   5.6317  10.3117  14.9440  15.5172  16.9777
    19.0793  21.2661  21.6468  23.4863  23.4972  26.5423  27.1335

          k = 0.1389 0.2406 0.4364 (   678 PWs)   bands (ev):

    -2.5832   1.3598   5.5508   6.3137  11.3427  15.1194  15.9235  16.5673
    18.6894  20.4944  20.9660  22.9984  23.3418  26.1163  26.3487

          k = 0.1111 0.1924 0.4364 (   682 PWs)   bands (ev):

    -2.9123   0.9528   6.3220   6.9703  12.4214  14.8142  16.1186  16.9189
    18.3761  19.4734  20.6824  22.6129  23.1085  25.0530  25.6681

          k = 0.0833 0.1443 0.4364 (   684 PWs)   bands (ev):

    -3.1690   0.6323   7.0786   7.5616  13.5163  14.6031  15.6037  17.7367
    18.2954  18.6701  20.4204  22.3507  22.7495  24.2088  24.6277

          k = 0.0556 0.0962 0.4364 (   688 PWs)   bands (ev):

    -3.3527   0.4014   7.7611   8.0386  14.4784  14.5607  15.0520  17.7818
    18.1289  18.9581  20.1695  22.2464  22.2468  23.5440  23.7361

          k = 0.0278 0.0481 0.4364 (   684 PWs)   bands (ev):

    -3.4631   0.2621   8.2673   8.3520  14.4229  14.5923  15.4043  17.6895
    17.8325  19.5772  19.9279  21.8064  22.3212  22.7242  23.5361

          k = 0.0000 0.0000 0.4364 (   684 PWs)   bands (ev):

    -3.4999   0.2155   8.4616   8.4616  14.4076  14.4076  15.7557  17.6545
    17.7397  19.8033  19.8033  21.6368  22.4190  22.4190  23.4811

          k = 0.5000 0.2887 0.4364 (   676 PWs)   bands (ev):

     0.1220   0.7477   4.1205   5.8185   6.4053  13.4894  16.5345  16.6638
    20.7513  23.3198  23.3854  23.4673  23.5273  28.5327  28.5390

          k = 0.5000 0.2887 0.3740 (   666 PWs)   bands (ev):

     0.0519   0.6894   4.2790   5.8035   6.5573  13.3882  16.6822  16.7777
    20.0561  22.1871  23.5053  23.9118  24.2581  28.3578  28.7699

          k = 0.5000 0.2887 0.3117 (   670 PWs)   bands (ev):

    -0.1253   0.5362   4.7166   5.7611   6.9886  13.1406  17.0390  17.1150
    18.6831  20.9060  23.4414  24.5392  24.8490  27.8124  29.4226

          k = 0.5000 0.2887 0.2493 (   664 PWs)   bands (ev):

    -0.3441   0.3371   5.3575   5.7019   7.6436  12.8396  17.1775  17.3415
    17.6638  19.7781  23.3547  24.9376  25.1795  26.8881  29.5942

          k = 0.5000 0.2887 0.1870 (   670 PWs)   bands (ev):

    -0.5517   0.1397   5.6382   6.1229   8.4587  12.5387  15.7128  16.9991
    18.4071  19.3952  23.2589  25.1399  25.3376  25.6722  28.5914

          k = 0.5000 0.2887 0.1247 (   672 PWs)   bands (ev):

    -0.7162  -0.0216   5.5821   6.9240   9.3656  12.2438  14.4056  16.0499
    19.3240  19.7327  23.1755  24.3192  25.2330  25.3981  27.6827

          k = 0.5000 0.2887 0.0623 (   672 PWs)   bands (ev):

    -0.8204  -0.1257   5.5443   7.6065  10.2584  11.9114  13.4164  15.1813
    20.1462  20.3883  22.9594  23.1209  25.2728  25.4120  27.0228

          k = 0.5000 0.2887 0.0000 (   676 PWs)   bands (ev):

    -0.8559  -0.1616   5.5309   7.8975  10.7860  11.6276  13.0221  14.8253
    20.3209  21.3711  21.8728  23.1007  25.2856  25.4107  26.7762

          k = 0.3333 0.5773 0.4364 (   672 PWs)   bands (ev):

     1.3205   1.3205   2.4899   5.6884   5.6884  11.2948  19.4166  19.7416
    19.7416  21.6499  21.6499  27.2976  27.5102  27.5102  27.8016

          k = 0.3333 0.5773 0.3740 (   675 PWs)   bands (ev):

     1.2586   1.2587   2.4514   5.8386   5.8386  11.4372  19.3804  19.5293
    19.5293  21.4280  21.4280  27.2313  27.2313  27.2934  27.5250

          k = 0.3333 0.5773 0.3117 (   666 PWs)   bands (ev):

     1.1003   1.1003   2.3473   6.2603   6.2603  11.8522  18.8381  18.8381
    19.2737  21.0273  21.0273  26.0775  27.2719  27.2720  27.2838

          k = 0.3333 0.5773 0.2493 (   678 PWs)   bands (ev):

     0.9007   0.9007   2.2050   6.8873   6.8873  12.5077  17.7384  17.7384
    19.0981  20.7213  20.7213  24.4804  27.2626  27.5977  27.5978

          k = 0.3333 0.5773 0.1870 (   678 PWs)   bands (ev):

     0.7083   0.7083   2.0569   7.6498   7.6498  13.3628  16.4765  16.4765
    18.8328  20.5157  20.5157  22.9649  27.2463  28.0899  28.0899

          k = 0.3333 0.5773 0.1247 (   684 PWs)   bands (ev):

     0.5542   0.5542   1.9311   8.4637   8.4638  14.3731  15.2566  15.2566
    18.4002  20.3760  20.3760  21.7070  27.2289  28.6473  28.6474

          k = 0.3333 0.5773 0.0623 (   675 PWs)   bands (ev):

     0.4560   0.4560   1.8479   9.1805   9.1806  14.2833  14.2833  15.4850
    17.6712  20.2930  20.2930  20.9107  27.2219  29.1426  29.1426

          k = 0.3333 0.5773 0.0000 (   666 PWs)   bands (ev):

     0.4224   0.4224   1.8190   9.4983   9.4983  13.8784  13.8784  16.4991
    16.7737  20.2655  20.2655  20.6561  27.2200  29.3612  29.3612

     Writing output data file ./pwscf.save/

     init_run     :      0.65s CPU      0.67s WALL (       1 calls)
     electrons    :      1.03s CPU      1.04s WALL (       1 calls)

     Called by init_run:
     wfcinit      :      0.00s CPU      0.00s WALL (       1 calls)
     potinit      :      0.08s CPU      0.09s WALL (       1 calls)
     hinit0       :      0.56s CPU      0.56s WALL (       1 calls)

     Called by electrons:
     c_bands      :      1.03s CPU      1.04s WALL (       1 calls)
     v_of_rho     :      0.04s CPU      0.05s WALL (       1 calls)
     newd         :      0.00s CPU      0.00s WALL (       1 calls)
     PAW_pot      :      0.02s CPU      0.03s WALL (       1 calls)

     Called by c_bands:
     init_us_2    :      0.00s CPU      0.00s WALL (       4 calls)
     cegterg      :      0.96s CPU      0.97s WALL (      12 calls)

     Called by *egterg:
     cdiaghg      :      0.06s CPU      0.07s WALL (     203 calls)
     h_psi        :      0.77s CPU      0.78s WALL (     215 calls)
     s_psi        :      0.02s CPU      0.02s WALL (     215 calls)
     g_psi        :      0.02s CPU      0.02s WALL (     199 calls)

     Called by h_psi:
     h_psi:calbec :      0.02s CPU      0.02s WALL (     215 calls)
     vloc_psi     :      0.73s CPU      0.74s WALL (     215 calls)
     add_vuspsi   :      0.02s CPU      0.02s WALL (     215 calls)

     General routines
     calbec       :      0.02s CPU      0.02s WALL (     215 calls)
     fft          :      0.02s CPU      0.02s WALL (      13 calls)
     ffts         :      0.00s CPU      0.00s WALL (       1 calls)
     fftw         :      0.62s CPU      0.62s WALL (    3326 calls)
     interpolate  :      0.00s CPU      0.00s WALL (       1 calls)
     davcio       :      0.00s CPU      0.00s WALL (       8 calls)

     Parallel routines

     PWSCF        :      2.00s CPU      2.30s WALL


   This run was terminated on:  11:19:28  29Jun2022            

=------------------------------------------------------------------------------=
   JOB DONE.
=------------------------------------------------------------------------------=
[macloud1:941015] 23 more processes have sent help message help-common-ofi.txt / package_rank failed
[macloud1:941015] Set MCA parameter "orte_base_help_aggregate" to 0 to see all help / error messages
[macloud1:941015] 23 more processes have sent help message help-mpi-btl-openib.txt / error in device init
