
     Program MATDYN v.7.4.1 starts on 13Mar2026 at  3: 7:38 

     This program is part of the open-source Quantum ESPRESSO suite
     for quantum simulation of materials; please cite
         "P. Giannozzi et al., J. Phys.:Condens. Matter 21 395502 (2009);
         "P. Giannozzi et al., J. Phys.:Condens. Matter 29 465901 (2017);
         "P. Giannozzi et al., J. Chem. Phys. 152 154105 (2020);
          URL http://www.quantum-espresso.org", 
     in publications or presentations arising from this work. More details at
     http://www.quantum-espresso.org/quote

     Parallel version (MPI & OpenMP), running on       1 processor cores
     Number of MPI processes:                 1
     Threads/MPI process:                     1

     MPI processes distributed on     1 nodes
     228608 MiB available memory on the printing compute node when the environment starts
 
 mass for atomic type   1 not given; uses mass from file ifc.dat                                                                                                                                                                                                                                                         
 mass for atomic type   2 not given; uses mass from file ifc.dat                                                                                                                                                                                                                                                         
 Norm of the difference between old and new effective charges:    0.00000000000000000000

 Norm of the difference between old and new force-constants:   0.00143814182802255437

     Message from routine matdyn:
     Z* not found in file ifc.dat, TO-LO splitting at q=0 will be absent!
     Message from routine matdyn:
     Z* not found in file ifc.dat, TO-LO splitting at q=0 will be absent!
 
  Gamma lines for all modes [Rydberg] 
 
 Norm of the difference between old and new effective charges:    0.00000000000000000000

 Norm of the difference between old and new force-constants:   0.00368797838689954773

 Broadening   0.0000
       1
-0.000000000-0.000000000 0.000000000 0.000001386 0.000004676-0.000001162
 0.000518087 0.000300542 0.000004326
       2
-0.000000238 0.000000620 0.000000418 0.000006475 0.000003069-0.000001245
 0.000487235 0.000298621 0.000003694
       3
-0.000000475 0.000001380 0.000001347 0.000009824 0.000005009-0.000000966
 0.000395259 0.000302710 0.000002080
       4
-0.000000125 0.000001260 0.000002338 0.000010168 0.000007101 0.000001099
 0.000281961 0.000290546 0.000000266
       5
 0.000000771 0.000000686 0.000003208 0.000007639 0.000006045 0.000008713
 0.000218839 0.000208588-0.000000668
       6
 0.000001771 0.000000266 0.000003714 0.000013432 0.000003552 0.000009493
 0.000000381 0.000150627 0.000131122
       7
 0.000002101 0.000000158 0.000003661 0.000021825-0.000001154 0.000008557
 0.000004273 0.000078000 0.000075285
       8
 0.000000212 0.000001364 0.000003123 0.000029150-0.000006660 0.000004597
 0.000011472 0.000020622 0.000034468
       9
 0.000000272 0.000000465 0.000002396 0.000032260-0.000013308 0.000021963
-0.000002231-0.000009059 0.000001049
      10
 0.000000300 0.000000204 0.000001807 0.000028455-0.000019720 0.000035158
-0.000007870-0.000016699-0.000024492
      11
 0.000000308 0.000000230 0.000001584 0.000022207-0.000022537 0.000044727
-0.000007543-0.000014014-0.000039597
      12
 0.000000432 0.000000409 0.000001610 0.000025479-0.000016595 0.000045607
-0.000003110-0.000011435-0.000037470
      13
 0.000000807 0.000000876 0.000001832 0.000034209-0.000002323 0.000047911
 0.000004938-0.000000745-0.000032286
      14
 0.000001440 0.000001405 0.000002145 0.000045339 0.000050938 0.000011953
 0.000009667-0.000004784-0.000003427
      15
 0.000001880 0.000002099 0.000002250 0.000054666 0.000053923 0.000016697
 0.000010843-0.000003735 0.000019393
      16
 0.000002064 0.000002960 0.000001786 0.000059005 0.000055220 0.000003051
 0.000017040 0.000004531 0.000022021
      17
 0.000001842 0.000002509 0.000001772 0.000055524 0.000052738 0.000018219
 0.000021964-0.000003925 0.000029868
      18
 0.000001432 0.000001900 0.000001707 0.000049007 0.000045784 0.000022773
 0.000025729 0.000030820 0.000011051
      19
 0.000001032 0.000001308 0.000001760 0.000040335 0.000022820 0.000036057
 0.000027898 0.000023082 0.000047751
      20
 0.000000880 0.000000831 0.000002146 0.000030690 0.000020688 0.000025558
 0.000026558 0.000013919 0.000102653
      21
 0.000000917 0.000000494 0.000002864 0.000021175 0.000018187 0.000021482
 0.000016057 0.000016137 0.000166990
      22
 0.000000720 0.000000360 0.000003558 0.000012678 0.000016609 0.000014673
 0.000008772 0.000228731 0.000043061
      23
 0.000000194 0.000000609 0.000003728 0.000005662 0.000015910 0.000008958
 0.000276823 0.000004230 0.000102810
      24
-0.000000373 0.000001258 0.000003124 0.000014698 0.000000588 0.000006098
 0.000305285 0.000193683 0.000002270
      25
-0.000000741 0.000001801 0.000001996 0.000011818 0.000005600-0.000001968
 0.000314889 0.000302867 0.000002192
      26
-0.000000713 0.000001527 0.000000955 0.000008126 0.000005107-0.000002233
 0.000409172 0.000311654 0.000003048
      27
-0.000000285 0.000000553 0.000000278 0.000005516 0.000002999-0.000001536
 0.000488267 0.000304178 0.000003956
      28
-0.000000000-0.000000000 0.000000000 0.000001386 0.000004676-0.000001162
 0.000518087 0.000300542 0.000004326
      29
 0.000000358 0.000000782 0.000000040 0.000001637 0.000004975-0.000001254
 0.000513113 0.000299007 0.000005032
      30
 0.000001210 0.000002534 0.000000639 0.000002322 0.000005864-0.000001589
 0.000499184 0.000294704 0.000007011
      31
 0.000002098 0.000004083 0.000002456 0.000003206 0.000007128-0.000001964
 0.000479080 0.000288486 0.000009871
      32
 0.000002703 0.000004756 0.000005247 0.000003948 0.000008190-0.000001704
 0.000456817 0.000281585 0.000013045
      33
 0.000002989 0.000004695 0.000008169 0.000004315 0.000008563-0.000000573
 0.000436805 0.000275367 0.000015905
      34
 0.000003009 0.000004160 0.000004437 0.000008619 0.000010594 0.000000543
 0.000422971 0.000271065 0.000017883
      35
 0.000000331 0.000000187 0.000007104 0.000012284 0.000011759 0.000000789
 0.000418034 0.000269529 0.000018590
      36
 0.000000209 0.000000290 0.000008098 0.000012231 0.000011528-0.000000229
 0.000390371 0.000258783 0.000016956
      37
 0.000000116 0.000000292 0.000011266 0.000008087 0.000011286-0.000002522
 0.000330277 0.000216247 0.000012741
      38
 0.000000035 0.000000207 0.000007600 0.000007643 0.000008972-0.000004369
 0.000257009 0.000150814 0.000007753
      39
 0.000000022 0.000000116 0.000005322 0.000004293-0.000004195 0.000004913
 0.000180420 0.000004248 0.000083432
      40
 0.000000128 0.000000169 0.000003148 0.000000787-0.000001310 0.000001363
 0.000004052 0.000112375 0.000028896
      41
 0.000000354 0.000000400 0.000001417-0.000002507 0.000004022-0.000000220
 0.000007844 0.000062230-0.000005325
      42
 0.000000654 0.000000293 0.000000602-0.000006277 0.000010804 0.000014898
 0.000000265 0.000033762-0.000019373
      43
 0.000000955-0.000000306 0.000000503-0.000011094 0.000017296 0.000023461
 0.000001274 0.000023998-0.000018764
      44
 0.000001178-0.000000566 0.000000147-0.000015936 0.000020673 0.000031860
 0.000000007 0.000024782-0.000010890
      45
 0.000001260-0.000000634-0.000000057-0.000018099 0.000019065 0.000037944
 0.000025680-0.000006258-0.000000518
      46
 0.000001325-0.000000462 0.000000036-0.000012964 0.000022554 0.000038730
 0.000027339 0.000000306-0.000000606
      47
 0.000001452-0.000000031 0.000000229 0.000031603-0.000000389 0.000040876
 0.000017401 0.000030099 0.000000639
      48
 0.000000438 0.000001474 0.000000355 0.000042739 0.000043503 0.000012705
 0.000018593 0.000006943 0.000047943
      49
 0.000000710 0.000001230 0.000000431 0.000051879 0.000044951 0.000019129
 0.000017794 0.000015041 0.000059399
      50
 0.000000718 0.000000694 0.000000752 0.000056217 0.000042771 0.000017223
 0.000012362 0.000017897 0.000063984
      51
 0.000000882 0.000001167 0.000000683 0.000058757 0.000043440 0.000021259
 0.000014059 0.000025791 0.000064198
      52
 0.000001051 0.000001396 0.000001182 0.000057146 0.000041785 0.000023943
 0.000013476 0.000062508 0.000019634
      53
 0.000001176 0.000001370 0.000001855 0.000050576 0.000023001 0.000037045
 0.000011718 0.000062153 0.000000181
      54
 0.000001125 0.000001365 0.000002081 0.000039959 0.000018552 0.000029520
 0.000010285 0.000067664-0.000026164
      55
 0.000000764 0.000001899 0.000001591 0.000027261 0.000012180 0.000010050
 0.000020666 0.000084294-0.000047382
      56
 0.000000407 0.000000741 0.000002982 0.000006231 0.000014715 0.000010896
 0.000012650 0.000116474-0.000049716
      57
 0.000000148 0.000000120 0.000004488 0.000002837 0.000004392 0.000012058
 0.000007524 0.000165697-0.000023324
      58
 0.000000025 0.000000000 0.000005937 0.000002989-0.000002103 0.000012764
 0.000228765 0.000006365 0.000032803
      59
 0.000000023 0.000000188 0.000006682 0.000006048 0.000012849-0.000004197
 0.000297396 0.000109002 0.000008796
      60
 0.000000088 0.000000354 0.000009876 0.000006619 0.000012608-0.000002863
 0.000359605 0.000187316 0.000013122
      61
 0.000000158 0.000000363 0.000007047 0.000012004 0.000011803-0.000000389
 0.000402767 0.000246913 0.000017034
      62
 0.000000331 0.000000187 0.000007104 0.000012284 0.000011759 0.000000789
 0.000418034 0.000269529 0.000018590
      63
 0.000001260-0.000000634-0.000000057-0.000018099 0.000019065 0.000037944
 0.000025680-0.000006258-0.000000518
      64
 0.000001230-0.000000575 0.000000030-0.000018321 0.000019212 0.000038306
 0.000023273-0.000006351-0.000002033
      65
 0.000001138-0.000000418 0.000000273-0.000018942 0.000019624 0.000039310
 0.000016795-0.000006597-0.000006529
      66
 0.000000978-0.000000214 0.000000624-0.000019841 0.000020224 0.000040723
 0.000008109-0.000006910-0.000013671
      67
 0.000000765-0.000000020 0.000001005 0.000020907-0.000020833 0.000042237
-0.000007197-0.000000654-0.000022435
      68
 0.000000542 0.000000124 0.000001327 0.000021551-0.000021718 0.000043548
-0.000007401-0.000007829-0.000031016
      69
 0.000000372 0.000000205 0.000001523 0.000022027-0.000022323 0.000044422
-0.000007510-0.000012435-0.000037295
      70
 0.000000308 0.000000230 0.000001584 0.000022207-0.000022537 0.000044727
-0.000007543-0.000014014-0.000039597
      71
 0.000000718 0.000000694 0.000000752 0.000056217 0.000042771 0.000017223
 0.000012362 0.000017897 0.000063984
      72
 0.000000790 0.000000725 0.000000863 0.000056327 0.000043359 0.000016417
 0.000012392 0.000017370 0.000062170
      73
 0.000000989 0.000000825 0.000001172 0.000056653 0.000045022 0.000014220
 0.000012643 0.000015815 0.000056884
      74
 0.000001272 0.000001001 0.000001616 0.000057165 0.000047467 0.000011200
 0.000013362 0.000013371 0.000048798
      75
 0.000001574 0.000001242 0.000002106 0.000057787 0.000050238 0.000008054
 0.000014517 0.000010390 0.000039343
      76
 0.000001834 0.000002547 0.000001502 0.000058395 0.000052785 0.000005398
 0.000015766 0.000007469 0.000030510
      77
 0.000002005 0.000002851 0.000001707 0.000058841 0.000054576 0.000003655
 0.000016698 0.000005322 0.000024269
      78
 0.000002064 0.000002960 0.000001786 0.000059005 0.000055220 0.000003051
 0.000017040 0.000004531 0.000022021
 Norm of the difference between old and new effective charges:    0.00000000000000000000

 Norm of the difference between old and new force-constants:   0.00368797838689954773

 Broadening   0.0000
       1
-0.000000000-0.000000000 0.000000000 0.000001386 0.000004676-0.000001162
 0.000518087 0.000300542 0.000004326
       2
-0.000000238 0.000000620 0.000000418 0.000006475 0.000003069-0.000001245
 0.000487235 0.000298621 0.000003694
       3
-0.000000475 0.000001380 0.000001347 0.000009824 0.000005009-0.000000966
 0.000395259 0.000302710 0.000002080
       4
-0.000000125 0.000001260 0.000002338 0.000010168 0.000007101 0.000001099
 0.000281961 0.000290546 0.000000266
       5
 0.000000771 0.000000686 0.000003208 0.000007639 0.000006045 0.000008713
 0.000218839 0.000208588-0.000000668
       6
 0.000001771 0.000000266 0.000003714 0.000013432 0.000003552 0.000009493
 0.000000381 0.000150627 0.000131122
       7
 0.000002101 0.000000158 0.000003661 0.000021825-0.000001154 0.000008557
 0.000004273 0.000078000 0.000075285
       8
 0.000000212 0.000001364 0.000003123 0.000029150-0.000006660 0.000004597
 0.000011472 0.000020622 0.000034468
       9
 0.000000272 0.000000465 0.000002396 0.000032260-0.000013308 0.000021963
-0.000002231-0.000009059 0.000001049
      10
 0.000000300 0.000000204 0.000001807 0.000028455-0.000019720 0.000035158
-0.000007870-0.000016699-0.000024492
      11
 0.000000308 0.000000230 0.000001584 0.000022207-0.000022537 0.000044727
-0.000007543-0.000014014-0.000039597
      12
 0.000000432 0.000000409 0.000001610 0.000025479-0.000016595 0.000045607
-0.000003110-0.000011435-0.000037470
      13
 0.000000807 0.000000876 0.000001832 0.000034209-0.000002323 0.000047911
 0.000004938-0.000000745-0.000032286
      14
 0.000001440 0.000001405 0.000002145 0.000045339 0.000050938 0.000011953
 0.000009667-0.000004784-0.000003427
      15
 0.000001880 0.000002099 0.000002250 0.000054666 0.000053923 0.000016697
 0.000010843-0.000003735 0.000019393
      16
 0.000002064 0.000002960 0.000001786 0.000059005 0.000055220 0.000003051
 0.000017040 0.000004531 0.000022021
      17
 0.000001842 0.000002509 0.000001772 0.000055524 0.000052738 0.000018219
 0.000021964-0.000003925 0.000029868
      18
 0.000001432 0.000001900 0.000001707 0.000049007 0.000045784 0.000022773
 0.000025729 0.000030820 0.000011051
      19
 0.000001032 0.000001308 0.000001760 0.000040335 0.000022820 0.000036057
 0.000027898 0.000023082 0.000047751
      20
 0.000000880 0.000000831 0.000002146 0.000030690 0.000020688 0.000025558
 0.000026558 0.000013919 0.000102653
      21
 0.000000917 0.000000494 0.000002864 0.000021175 0.000018187 0.000021482
 0.000016057 0.000016137 0.000166990
      22
 0.000000720 0.000000360 0.000003558 0.000012678 0.000016609 0.000014673
 0.000008772 0.000228731 0.000043061
      23
 0.000000194 0.000000609 0.000003728 0.000005662 0.000015910 0.000008958
 0.000276823 0.000004230 0.000102810
      24
-0.000000373 0.000001258 0.000003124 0.000014698 0.000000588 0.000006098
 0.000305285 0.000193683 0.000002270
      25
-0.000000741 0.000001801 0.000001996 0.000011818 0.000005600-0.000001968
 0.000314889 0.000302867 0.000002192
      26
-0.000000713 0.000001527 0.000000955 0.000008126 0.000005107-0.000002233
 0.000409172 0.000311654 0.000003048
      27
-0.000000285 0.000000553 0.000000278 0.000005516 0.000002999-0.000001536
 0.000488267 0.000304178 0.000003956
      28
-0.000000000-0.000000000 0.000000000 0.000001386 0.000004676-0.000001162
 0.000518087 0.000300542 0.000004326
      29
 0.000000358 0.000000782 0.000000040 0.000001637 0.000004975-0.000001254
 0.000513113 0.000299007 0.000005032
      30
 0.000001210 0.000002534 0.000000639 0.000002322 0.000005864-0.000001589
 0.000499184 0.000294704 0.000007011
      31
 0.000002098 0.000004083 0.000002456 0.000003206 0.000007128-0.000001964
 0.000479080 0.000288486 0.000009871
      32
 0.000002703 0.000004756 0.000005247 0.000003948 0.000008190-0.000001704
 0.000456817 0.000281585 0.000013045
      33
 0.000002989 0.000004695 0.000008169 0.000004315 0.000008563-0.000000573
 0.000436805 0.000275367 0.000015905
      34
 0.000003009 0.000004160 0.000004437 0.000008619 0.000010594 0.000000543
 0.000422971 0.000271065 0.000017883
      35
 0.000000331 0.000000187 0.000007104 0.000012284 0.000011759 0.000000789
 0.000418034 0.000269529 0.000018590
      36
 0.000000209 0.000000290 0.000008098 0.000012231 0.000011528-0.000000229
 0.000390371 0.000258783 0.000016956
      37
 0.000000116 0.000000292 0.000011266 0.000008087 0.000011286-0.000002522
 0.000330277 0.000216247 0.000012741
      38
 0.000000035 0.000000207 0.000007600 0.000007643 0.000008972-0.000004369
 0.000257009 0.000150814 0.000007753
      39
 0.000000022 0.000000116 0.000005322 0.000004293-0.000004195 0.000004913
 0.000180420 0.000004248 0.000083432
      40
 0.000000128 0.000000169 0.000003148 0.000000787-0.000001310 0.000001363
 0.000004052 0.000112375 0.000028896
      41
 0.000000354 0.000000400 0.000001417-0.000002507 0.000004022-0.000000220
 0.000007844 0.000062230-0.000005325
      42
 0.000000654 0.000000293 0.000000602-0.000006277 0.000010804 0.000014898
 0.000000265 0.000033762-0.000019373
      43
 0.000000955-0.000000306 0.000000503-0.000011094 0.000017296 0.000023461
 0.000001274 0.000023998-0.000018764
      44
 0.000001178-0.000000566 0.000000147-0.000015936 0.000020673 0.000031860
 0.000000007 0.000024782-0.000010890
      45
 0.000001260-0.000000634-0.000000057-0.000018099 0.000019065 0.000037944
 0.000025680-0.000006258-0.000000518
      46
 0.000001325-0.000000462 0.000000036-0.000012964 0.000022554 0.000038730
 0.000027339 0.000000306-0.000000606
      47
 0.000001452-0.000000031 0.000000229 0.000031603-0.000000389 0.000040876
 0.000017401 0.000030099 0.000000639
      48
 0.000000438 0.000001474 0.000000355 0.000042739 0.000043503 0.000012705
 0.000018593 0.000006943 0.000047943
      49
 0.000000710 0.000001230 0.000000431 0.000051879 0.000044951 0.000019129
 0.000017794 0.000015041 0.000059399
      50
 0.000000718 0.000000694 0.000000752 0.000056217 0.000042771 0.000017223
 0.000012362 0.000017897 0.000063984
      51
 0.000000882 0.000001167 0.000000683 0.000058757 0.000043440 0.000021259
 0.000014059 0.000025791 0.000064198
      52
 0.000001051 0.000001396 0.000001182 0.000057146 0.000041785 0.000023943
 0.000013476 0.000062508 0.000019634
      53
 0.000001176 0.000001370 0.000001855 0.000050576 0.000023001 0.000037045
 0.000011718 0.000062153 0.000000181
      54
 0.000001125 0.000001365 0.000002081 0.000039959 0.000018552 0.000029520
 0.000010285 0.000067664-0.000026164
      55
 0.000000764 0.000001899 0.000001591 0.000027261 0.000012180 0.000010050
 0.000020666 0.000084294-0.000047382
      56
 0.000000407 0.000000741 0.000002982 0.000006231 0.000014715 0.000010896
 0.000012650 0.000116474-0.000049716
      57
 0.000000148 0.000000120 0.000004488 0.000002837 0.000004392 0.000012058
 0.000007524 0.000165697-0.000023324
      58
 0.000000025 0.000000000 0.000005937 0.000002989-0.000002103 0.000012764
 0.000228765 0.000006365 0.000032803
      59
 0.000000023 0.000000188 0.000006682 0.000006048 0.000012849-0.000004197
 0.000297396 0.000109002 0.000008796
      60
 0.000000088 0.000000354 0.000009876 0.000006619 0.000012608-0.000002863
 0.000359605 0.000187316 0.000013122
      61
 0.000000158 0.000000363 0.000007047 0.000012004 0.000011803-0.000000389
 0.000402767 0.000246913 0.000017034
      62
 0.000000331 0.000000187 0.000007104 0.000012284 0.000011759 0.000000789
 0.000418034 0.000269529 0.000018590
      63
 0.000001260-0.000000634-0.000000057-0.000018099 0.000019065 0.000037944
 0.000025680-0.000006258-0.000000518
      64
 0.000001230-0.000000575 0.000000030-0.000018321 0.000019212 0.000038306
 0.000023273-0.000006351-0.000002033
      65
 0.000001138-0.000000418 0.000000273-0.000018942 0.000019624 0.000039310
 0.000016795-0.000006597-0.000006529
      66
 0.000000978-0.000000214 0.000000624-0.000019841 0.000020224 0.000040723
 0.000008109-0.000006910-0.000013671
      67
 0.000000765-0.000000020 0.000001005 0.000020907-0.000020833 0.000042237
-0.000007197-0.000000654-0.000022435
      68
 0.000000542 0.000000124 0.000001327 0.000021551-0.000021718 0.000043548
-0.000007401-0.000007829-0.000031016
      69
 0.000000372 0.000000205 0.000001523 0.000022027-0.000022323 0.000044422
-0.000007510-0.000012435-0.000037295
      70
 0.000000308 0.000000230 0.000001584 0.000022207-0.000022537 0.000044727
-0.000007543-0.000014014-0.000039597
      71
 0.000000718 0.000000694 0.000000752 0.000056217 0.000042771 0.000017223
 0.000012362 0.000017897 0.000063984
      72
 0.000000790 0.000000725 0.000000863 0.000056327 0.000043359 0.000016417
 0.000012392 0.000017370 0.000062170
      73
 0.000000989 0.000000825 0.000001172 0.000056653 0.000045022 0.000014220
 0.000012643 0.000015815 0.000056884
      74
 0.000001272 0.000001001 0.000001616 0.000057165 0.000047467 0.000011200
 0.000013362 0.000013371 0.000048798
      75
 0.000001574 0.000001242 0.000002106 0.000057787 0.000050238 0.000008054
 0.000014517 0.000010390 0.000039343
      76
 0.000001834 0.000002547 0.000001502 0.000058395 0.000052785 0.000005398
 0.000015766 0.000007469 0.000030510
      77
 0.000002005 0.000002851 0.000001707 0.000058841 0.000054576 0.000003655
 0.000016698 0.000005322 0.000024269
      78
 0.000002064 0.000002960 0.000001786 0.000059005 0.000055220 0.000003051
 0.000017040 0.000004531 0.000022021
 Norm of the difference between old and new effective charges:    0.00000000000000000000

 Norm of the difference between old and new force-constants:   0.00368797838689954773

 Broadening   0.0000
       1
-0.000000000-0.000000000 0.000000000 0.000001386 0.000004676-0.000001162
 0.000518087 0.000300542 0.000004326
       2
-0.000000238 0.000000620 0.000000418 0.000006475 0.000003069-0.000001245
 0.000487235 0.000298621 0.000003694
       3
-0.000000475 0.000001380 0.000001347 0.000009824 0.000005009-0.000000966
 0.000395259 0.000302710 0.000002080
       4
-0.000000125 0.000001260 0.000002338 0.000010168 0.000007101 0.000001099
 0.000281961 0.000290546 0.000000266
       5
 0.000000771 0.000000686 0.000003208 0.000007639 0.000006045 0.000008713
 0.000218839 0.000208588-0.000000668
       6
 0.000001771 0.000000266 0.000003714 0.000013432 0.000003552 0.000009493
 0.000000381 0.000150627 0.000131122
       7
 0.000002101 0.000000158 0.000003661 0.000021825-0.000001154 0.000008557
 0.000004273 0.000078000 0.000075285
       8
 0.000000212 0.000001364 0.000003123 0.000029150-0.000006660 0.000004597
 0.000011472 0.000020622 0.000034468
       9
 0.000000272 0.000000465 0.000002396 0.000032260-0.000013308 0.000021963
-0.000002231-0.000009059 0.000001049
      10
 0.000000300 0.000000204 0.000001807 0.000028455-0.000019720 0.000035158
-0.000007870-0.000016699-0.000024492
      11
 0.000000308 0.000000230 0.000001584 0.000022207-0.000022537 0.000044727
-0.000007543-0.000014014-0.000039597
      12
 0.000000432 0.000000409 0.000001610 0.000025479-0.000016595 0.000045607
-0.000003110-0.000011435-0.000037470
      13
 0.000000807 0.000000876 0.000001832 0.000034209-0.000002323 0.000047911
 0.000004938-0.000000745-0.000032286
      14
 0.000001440 0.000001405 0.000002145 0.000045339 0.000050938 0.000011953
 0.000009667-0.000004784-0.000003427
      15
 0.000001880 0.000002099 0.000002250 0.000054666 0.000053923 0.000016697
 0.000010843-0.000003735 0.000019393
      16
 0.000002064 0.000002960 0.000001786 0.000059005 0.000055220 0.000003051
 0.000017040 0.000004531 0.000022021
      17
 0.000001842 0.000002509 0.000001772 0.000055524 0.000052738 0.000018219
 0.000021964-0.000003925 0.000029868
      18
 0.000001432 0.000001900 0.000001707 0.000049007 0.000045784 0.000022773
 0.000025729 0.000030820 0.000011051
      19
 0.000001032 0.000001308 0.000001760 0.000040335 0.000022820 0.000036057
 0.000027898 0.000023082 0.000047751
      20
 0.000000880 0.000000831 0.000002146 0.000030690 0.000020688 0.000025558
 0.000026558 0.000013919 0.000102653
      21
 0.000000917 0.000000494 0.000002864 0.000021175 0.000018187 0.000021482
 0.000016057 0.000016137 0.000166990
      22
 0.000000720 0.000000360 0.000003558 0.000012678 0.000016609 0.000014673
 0.000008772 0.000228731 0.000043061
      23
 0.000000194 0.000000609 0.000003728 0.000005662 0.000015910 0.000008958
 0.000276823 0.000004230 0.000102810
      24
-0.000000373 0.000001258 0.000003124 0.000014698 0.000000588 0.000006098
 0.000305285 0.000193683 0.000002270
      25
-0.000000741 0.000001801 0.000001996 0.000011818 0.000005600-0.000001968
 0.000314889 0.000302867 0.000002192
      26
-0.000000713 0.000001527 0.000000955 0.000008126 0.000005107-0.000002233
 0.000409172 0.000311654 0.000003048
      27
-0.000000285 0.000000553 0.000000278 0.000005516 0.000002999-0.000001536
 0.000488267 0.000304178 0.000003956
      28
-0.000000000-0.000000000 0.000000000 0.000001386 0.000004676-0.000001162
 0.000518087 0.000300542 0.000004326
      29
 0.000000358 0.000000782 0.000000040 0.000001637 0.000004975-0.000001254
 0.000513113 0.000299007 0.000005032
      30
 0.000001210 0.000002534 0.000000639 0.000002322 0.000005864-0.000001589
 0.000499184 0.000294704 0.000007011
      31
 0.000002098 0.000004083 0.000002456 0.000003206 0.000007128-0.000001964
 0.000479080 0.000288486 0.000009871
      32
 0.000002703 0.000004756 0.000005247 0.000003948 0.000008190-0.000001704
 0.000456817 0.000281585 0.000013045
      33
 0.000002989 0.000004695 0.000008169 0.000004315 0.000008563-0.000000573
 0.000436805 0.000275367 0.000015905
      34
 0.000003009 0.000004160 0.000004437 0.000008619 0.000010594 0.000000543
 0.000422971 0.000271065 0.000017883
      35
 0.000000331 0.000000187 0.000007104 0.000012284 0.000011759 0.000000789
 0.000418034 0.000269529 0.000018590
      36
 0.000000209 0.000000290 0.000008098 0.000012231 0.000011528-0.000000229
 0.000390371 0.000258783 0.000016956
      37
 0.000000116 0.000000292 0.000011266 0.000008087 0.000011286-0.000002522
 0.000330277 0.000216247 0.000012741
      38
 0.000000035 0.000000207 0.000007600 0.000007643 0.000008972-0.000004369
 0.000257009 0.000150814 0.000007753
      39
 0.000000022 0.000000116 0.000005322 0.000004293-0.000004195 0.000004913
 0.000180420 0.000004248 0.000083432
      40
 0.000000128 0.000000169 0.000003148 0.000000787-0.000001310 0.000001363
 0.000004052 0.000112375 0.000028896
      41
 0.000000354 0.000000400 0.000001417-0.000002507 0.000004022-0.000000220
 0.000007844 0.000062230-0.000005325
      42
 0.000000654 0.000000293 0.000000602-0.000006277 0.000010804 0.000014898
 0.000000265 0.000033762-0.000019373
      43
 0.000000955-0.000000306 0.000000503-0.000011094 0.000017296 0.000023461
 0.000001274 0.000023998-0.000018764
      44
 0.000001178-0.000000566 0.000000147-0.000015936 0.000020673 0.000031860
 0.000000007 0.000024782-0.000010890
      45
 0.000001260-0.000000634-0.000000057-0.000018099 0.000019065 0.000037944
 0.000025680-0.000006258-0.000000518
      46
 0.000001325-0.000000462 0.000000036-0.000012964 0.000022554 0.000038730
 0.000027339 0.000000306-0.000000606
      47
 0.000001452-0.000000031 0.000000229 0.000031603-0.000000389 0.000040876
 0.000017401 0.000030099 0.000000639
      48
 0.000000438 0.000001474 0.000000355 0.000042739 0.000043503 0.000012705
 0.000018593 0.000006943 0.000047943
      49
 0.000000710 0.000001230 0.000000431 0.000051879 0.000044951 0.000019129
 0.000017794 0.000015041 0.000059399
      50
 0.000000718 0.000000694 0.000000752 0.000056217 0.000042771 0.000017223
 0.000012362 0.000017897 0.000063984
      51
 0.000000882 0.000001167 0.000000683 0.000058757 0.000043440 0.000021259
 0.000014059 0.000025791 0.000064198
      52
 0.000001051 0.000001396 0.000001182 0.000057146 0.000041785 0.000023943
 0.000013476 0.000062508 0.000019634
      53
 0.000001176 0.000001370 0.000001855 0.000050576 0.000023001 0.000037045
 0.000011718 0.000062153 0.000000181
      54
 0.000001125 0.000001365 0.000002081 0.000039959 0.000018552 0.000029520
 0.000010285 0.000067664-0.000026164
      55
 0.000000764 0.000001899 0.000001591 0.000027261 0.000012180 0.000010050
 0.000020666 0.000084294-0.000047382
      56
 0.000000407 0.000000741 0.000002982 0.000006231 0.000014715 0.000010896
 0.000012650 0.000116474-0.000049716
      57
 0.000000148 0.000000120 0.000004488 0.000002837 0.000004392 0.000012058
 0.000007524 0.000165697-0.000023324
      58
 0.000000025 0.000000000 0.000005937 0.000002989-0.000002103 0.000012764
 0.000228765 0.000006365 0.000032803
      59
 0.000000023 0.000000188 0.000006682 0.000006048 0.000012849-0.000004197
 0.000297396 0.000109002 0.000008796
      60
 0.000000088 0.000000354 0.000009876 0.000006619 0.000012608-0.000002863
 0.000359605 0.000187316 0.000013122
      61
 0.000000158 0.000000363 0.000007047 0.000012004 0.000011803-0.000000389
 0.000402767 0.000246913 0.000017034
      62
 0.000000331 0.000000187 0.000007104 0.000012284 0.000011759 0.000000789
 0.000418034 0.000269529 0.000018590
      63
 0.000001260-0.000000634-0.000000057-0.000018099 0.000019065 0.000037944
 0.000025680-0.000006258-0.000000518
      64
 0.000001230-0.000000575 0.000000030-0.000018321 0.000019212 0.000038306
 0.000023273-0.000006351-0.000002033
      65
 0.000001138-0.000000418 0.000000273-0.000018942 0.000019624 0.000039310
 0.000016795-0.000006597-0.000006529
      66
 0.000000978-0.000000214 0.000000624-0.000019841 0.000020224 0.000040723
 0.000008109-0.000006910-0.000013671
      67
 0.000000765-0.000000020 0.000001005 0.000020907-0.000020833 0.000042237
-0.000007197-0.000000654-0.000022435
      68
 0.000000542 0.000000124 0.000001327 0.000021551-0.000021718 0.000043548
-0.000007401-0.000007829-0.000031016
      69
 0.000000372 0.000000205 0.000001523 0.000022027-0.000022323 0.000044422
-0.000007510-0.000012435-0.000037295
      70
 0.000000308 0.000000230 0.000001584 0.000022207-0.000022537 0.000044727
-0.000007543-0.000014014-0.000039597
      71
 0.000000718 0.000000694 0.000000752 0.000056217 0.000042771 0.000017223
 0.000012362 0.000017897 0.000063984
      72
 0.000000790 0.000000725 0.000000863 0.000056327 0.000043359 0.000016417
 0.000012392 0.000017370 0.000062170
      73
 0.000000989 0.000000825 0.000001172 0.000056653 0.000045022 0.000014220
 0.000012643 0.000015815 0.000056884
      74
 0.000001272 0.000001001 0.000001616 0.000057165 0.000047467 0.000011200
 0.000013362 0.000013371 0.000048798
      75
 0.000001574 0.000001242 0.000002106 0.000057787 0.000050238 0.000008054
 0.000014517 0.000010390 0.000039343
      76
 0.000001834 0.000002547 0.000001502 0.000058395 0.000052785 0.000005398
 0.000015766 0.000007469 0.000030510
      77
 0.000002005 0.000002851 0.000001707 0.000058841 0.000054576 0.000003655
 0.000016698 0.000005322 0.000024269
      78
 0.000002064 0.000002960 0.000001786 0.000059005 0.000055220 0.000003051
 0.000017040 0.000004531 0.000022021
 Norm of the difference between old and new effective charges:    0.00000000000000000000

 Norm of the difference between old and new force-constants:   0.00368797838689954773

 Broadening   0.0000
       1
-0.000000000-0.000000000 0.000000000 0.000001386 0.000004676-0.000001162
 0.000518087 0.000300542 0.000004326
       2
-0.000000238 0.000000620 0.000000418 0.000006475 0.000003069-0.000001245
 0.000487235 0.000298621 0.000003694
       3
-0.000000475 0.000001380 0.000001347 0.000009824 0.000005009-0.000000966
 0.000395259 0.000302710 0.000002080
       4
-0.000000125 0.000001260 0.000002338 0.000010168 0.000007101 0.000001099
 0.000281961 0.000290546 0.000000266
       5
 0.000000771 0.000000686 0.000003208 0.000007639 0.000006045 0.000008713
 0.000218839 0.000208588-0.000000668
       6
 0.000001771 0.000000266 0.000003714 0.000013432 0.000003552 0.000009493
 0.000000381 0.000150627 0.000131122
       7
 0.000002101 0.000000158 0.000003661 0.000021825-0.000001154 0.000008557
 0.000004273 0.000078000 0.000075285
       8
 0.000000212 0.000001364 0.000003123 0.000029150-0.000006660 0.000004597
 0.000011472 0.000020622 0.000034468
       9
 0.000000272 0.000000465 0.000002396 0.000032260-0.000013308 0.000021963
-0.000002231-0.000009059 0.000001049
      10
 0.000000300 0.000000204 0.000001807 0.000028455-0.000019720 0.000035158
-0.000007870-0.000016699-0.000024492
      11
 0.000000308 0.000000230 0.000001584 0.000022207-0.000022537 0.000044727
-0.000007543-0.000014014-0.000039597
      12
 0.000000432 0.000000409 0.000001610 0.000025479-0.000016595 0.000045607
-0.000003110-0.000011435-0.000037470
      13
 0.000000807 0.000000876 0.000001832 0.000034209-0.000002323 0.000047911
 0.000004938-0.000000745-0.000032286
      14
 0.000001440 0.000001405 0.000002145 0.000045339 0.000050938 0.000011953
 0.000009667-0.000004784-0.000003427
      15
 0.000001880 0.000002099 0.000002250 0.000054666 0.000053923 0.000016697
 0.000010843-0.000003735 0.000019393
      16
 0.000002064 0.000002960 0.000001786 0.000059005 0.000055220 0.000003051
 0.000017040 0.000004531 0.000022021
      17
 0.000001842 0.000002509 0.000001772 0.000055524 0.000052738 0.000018219
 0.000021964-0.000003925 0.000029868
      18
 0.000001432 0.000001900 0.000001707 0.000049007 0.000045784 0.000022773
 0.000025729 0.000030820 0.000011051
      19
 0.000001032 0.000001308 0.000001760 0.000040335 0.000022820 0.000036057
 0.000027898 0.000023082 0.000047751
      20
 0.000000880 0.000000831 0.000002146 0.000030690 0.000020688 0.000025558
 0.000026558 0.000013919 0.000102653
      21
 0.000000917 0.000000494 0.000002864 0.000021175 0.000018187 0.000021482
 0.000016057 0.000016137 0.000166990
      22
 0.000000720 0.000000360 0.000003558 0.000012678 0.000016609 0.000014673
 0.000008772 0.000228731 0.000043061
      23
 0.000000194 0.000000609 0.000003728 0.000005662 0.000015910 0.000008958
 0.000276823 0.000004230 0.000102810
      24
-0.000000373 0.000001258 0.000003124 0.000014698 0.000000588 0.000006098
 0.000305285 0.000193683 0.000002270
      25
-0.000000741 0.000001801 0.000001996 0.000011818 0.000005600-0.000001968
 0.000314889 0.000302867 0.000002192
      26
-0.000000713 0.000001527 0.000000955 0.000008126 0.000005107-0.000002233
 0.000409172 0.000311654 0.000003048
      27
-0.000000285 0.000000553 0.000000278 0.000005516 0.000002999-0.000001536
 0.000488267 0.000304178 0.000003956
      28
-0.000000000-0.000000000 0.000000000 0.000001386 0.000004676-0.000001162
 0.000518087 0.000300542 0.000004326
      29
 0.000000358 0.000000782 0.000000040 0.000001637 0.000004975-0.000001254
 0.000513113 0.000299007 0.000005032
      30
 0.000001210 0.000002534 0.000000639 0.000002322 0.000005864-0.000001589
 0.000499184 0.000294704 0.000007011
      31
 0.000002098 0.000004083 0.000002456 0.000003206 0.000007128-0.000001964
 0.000479080 0.000288486 0.000009871
      32
 0.000002703 0.000004756 0.000005247 0.000003948 0.000008190-0.000001704
 0.000456817 0.000281585 0.000013045
      33
 0.000002989 0.000004695 0.000008169 0.000004315 0.000008563-0.000000573
 0.000436805 0.000275367 0.000015905
      34
 0.000003009 0.000004160 0.000004437 0.000008619 0.000010594 0.000000543
 0.000422971 0.000271065 0.000017883
      35
 0.000000331 0.000000187 0.000007104 0.000012284 0.000011759 0.000000789
 0.000418034 0.000269529 0.000018590
      36
 0.000000209 0.000000290 0.000008098 0.000012231 0.000011528-0.000000229
 0.000390371 0.000258783 0.000016956
      37
 0.000000116 0.000000292 0.000011266 0.000008087 0.000011286-0.000002522
 0.000330277 0.000216247 0.000012741
      38
 0.000000035 0.000000207 0.000007600 0.000007643 0.000008972-0.000004369
 0.000257009 0.000150814 0.000007753
      39
 0.000000022 0.000000116 0.000005322 0.000004293-0.000004195 0.000004913
 0.000180420 0.000004248 0.000083432
      40
 0.000000128 0.000000169 0.000003148 0.000000787-0.000001310 0.000001363
 0.000004052 0.000112375 0.000028896
      41
 0.000000354 0.000000400 0.000001417-0.000002507 0.000004022-0.000000220
 0.000007844 0.000062230-0.000005325
      42
 0.000000654 0.000000293 0.000000602-0.000006277 0.000010804 0.000014898
 0.000000265 0.000033762-0.000019373
      43
 0.000000955-0.000000306 0.000000503-0.000011094 0.000017296 0.000023461
 0.000001274 0.000023998-0.000018764
      44
 0.000001178-0.000000566 0.000000147-0.000015936 0.000020673 0.000031860
 0.000000007 0.000024782-0.000010890
      45
 0.000001260-0.000000634-0.000000057-0.000018099 0.000019065 0.000037944
 0.000025680-0.000006258-0.000000518
      46
 0.000001325-0.000000462 0.000000036-0.000012964 0.000022554 0.000038730
 0.000027339 0.000000306-0.000000606
      47
 0.000001452-0.000000031 0.000000229 0.000031603-0.000000389 0.000040876
 0.000017401 0.000030099 0.000000639
      48
 0.000000438 0.000001474 0.000000355 0.000042739 0.000043503 0.000012705
 0.000018593 0.000006943 0.000047943
      49
 0.000000710 0.000001230 0.000000431 0.000051879 0.000044951 0.000019129
 0.000017794 0.000015041 0.000059399
      50
 0.000000718 0.000000694 0.000000752 0.000056217 0.000042771 0.000017223
 0.000012362 0.000017897 0.000063984
      51
 0.000000882 0.000001167 0.000000683 0.000058757 0.000043440 0.000021259
 0.000014059 0.000025791 0.000064198
      52
 0.000001051 0.000001396 0.000001182 0.000057146 0.000041785 0.000023943
 0.000013476 0.000062508 0.000019634
      53
 0.000001176 0.000001370 0.000001855 0.000050576 0.000023001 0.000037045
 0.000011718 0.000062153 0.000000181
      54
 0.000001125 0.000001365 0.000002081 0.000039959 0.000018552 0.000029520
 0.000010285 0.000067664-0.000026164
      55
 0.000000764 0.000001899 0.000001591 0.000027261 0.000012180 0.000010050
 0.000020666 0.000084294-0.000047382
      56
 0.000000407 0.000000741 0.000002982 0.000006231 0.000014715 0.000010896
 0.000012650 0.000116474-0.000049716
      57
 0.000000148 0.000000120 0.000004488 0.000002837 0.000004392 0.000012058
 0.000007524 0.000165697-0.000023324
      58
 0.000000025 0.000000000 0.000005937 0.000002989-0.000002103 0.000012764
 0.000228765 0.000006365 0.000032803
      59
 0.000000023 0.000000188 0.000006682 0.000006048 0.000012849-0.000004197
 0.000297396 0.000109002 0.000008796
      60
 0.000000088 0.000000354 0.000009876 0.000006619 0.000012608-0.000002863
 0.000359605 0.000187316 0.000013122
      61
 0.000000158 0.000000363 0.000007047 0.000012004 0.000011803-0.000000389
 0.000402767 0.000246913 0.000017034
      62
 0.000000331 0.000000187 0.000007104 0.000012284 0.000011759 0.000000789
 0.000418034 0.000269529 0.000018590
      63
 0.000001260-0.000000634-0.000000057-0.000018099 0.000019065 0.000037944
 0.000025680-0.000006258-0.000000518
      64
 0.000001230-0.000000575 0.000000030-0.000018321 0.000019212 0.000038306
 0.000023273-0.000006351-0.000002033
      65
 0.000001138-0.000000418 0.000000273-0.000018942 0.000019624 0.000039310
 0.000016795-0.000006597-0.000006529
      66
 0.000000978-0.000000214 0.000000624-0.000019841 0.000020224 0.000040723
 0.000008109-0.000006910-0.000013671
      67
 0.000000765-0.000000020 0.000001005 0.000020907-0.000020833 0.000042237
-0.000007197-0.000000654-0.000022435
      68
 0.000000542 0.000000124 0.000001327 0.000021551-0.000021718 0.000043548
-0.000007401-0.000007829-0.000031016
      69
 0.000000372 0.000000205 0.000001523 0.000022027-0.000022323 0.000044422
-0.000007510-0.000012435-0.000037295
      70
 0.000000308 0.000000230 0.000001584 0.000022207-0.000022537 0.000044727
-0.000007543-0.000014014-0.000039597
      71
 0.000000718 0.000000694 0.000000752 0.000056217 0.000042771 0.000017223
 0.000012362 0.000017897 0.000063984
      72
 0.000000790 0.000000725 0.000000863 0.000056327 0.000043359 0.000016417
 0.000012392 0.000017370 0.000062170
      73
 0.000000989 0.000000825 0.000001172 0.000056653 0.000045022 0.000014220
 0.000012643 0.000015815 0.000056884
      74
 0.000001272 0.000001001 0.000001616 0.000057165 0.000047467 0.000011200
 0.000013362 0.000013371 0.000048798
      75
 0.000001574 0.000001242 0.000002106 0.000057787 0.000050238 0.000008054
 0.000014517 0.000010390 0.000039343
      76
 0.000001834 0.000002547 0.000001502 0.000058395 0.000052785 0.000005398
 0.000015766 0.000007469 0.000030510
      77
 0.000002005 0.000002851 0.000001707 0.000058841 0.000054576 0.000003655
 0.000016698 0.000005322 0.000024269
      78
 0.000002064 0.000002960 0.000001786 0.000059005 0.000055220 0.000003051
 0.000017040 0.000004531 0.000022021
 Norm of the difference between old and new effective charges:    0.00000000000000000000

 Norm of the difference between old and new force-constants:   0.00368797838689954773

 Broadening   0.0000
       1
-0.000000000-0.000000000 0.000000000 0.000001386 0.000004676-0.000001162
 0.000518087 0.000300542 0.000004326
       2
-0.000000238 0.000000620 0.000000418 0.000006475 0.000003069-0.000001245
 0.000487235 0.000298621 0.000003694
       3
-0.000000475 0.000001380 0.000001347 0.000009824 0.000005009-0.000000966
 0.000395259 0.000302710 0.000002080
       4
-0.000000125 0.000001260 0.000002338 0.000010168 0.000007101 0.000001099
 0.000281961 0.000290546 0.000000266
       5
 0.000000771 0.000000686 0.000003208 0.000007639 0.000006045 0.000008713
 0.000218839 0.000208588-0.000000668
       6
 0.000001771 0.000000266 0.000003714 0.000013432 0.000003552 0.000009493
 0.000000381 0.000150627 0.000131122
       7
 0.000002101 0.000000158 0.000003661 0.000021825-0.000001154 0.000008557
 0.000004273 0.000078000 0.000075285
       8
 0.000000212 0.000001364 0.000003123 0.000029150-0.000006660 0.000004597
 0.000011472 0.000020622 0.000034468
       9
 0.000000272 0.000000465 0.000002396 0.000032260-0.000013308 0.000021963
-0.000002231-0.000009059 0.000001049
      10
 0.000000300 0.000000204 0.000001807 0.000028455-0.000019720 0.000035158
-0.000007870-0.000016699-0.000024492
      11
 0.000000308 0.000000230 0.000001584 0.000022207-0.000022537 0.000044727
-0.000007543-0.000014014-0.000039597
      12
 0.000000432 0.000000409 0.000001610 0.000025479-0.000016595 0.000045607
-0.000003110-0.000011435-0.000037470
      13
 0.000000807 0.000000876 0.000001832 0.000034209-0.000002323 0.000047911
 0.000004938-0.000000745-0.000032286
      14
 0.000001440 0.000001405 0.000002145 0.000045339 0.000050938 0.000011953
 0.000009667-0.000004784-0.000003427
      15
 0.000001880 0.000002099 0.000002250 0.000054666 0.000053923 0.000016697
 0.000010843-0.000003735 0.000019393
      16
 0.000002064 0.000002960 0.000001786 0.000059005 0.000055220 0.000003051
 0.000017040 0.000004531 0.000022021
      17
 0.000001842 0.000002509 0.000001772 0.000055524 0.000052738 0.000018219
 0.000021964-0.000003925 0.000029868
      18
 0.000001432 0.000001900 0.000001707 0.000049007 0.000045784 0.000022773
 0.000025729 0.000030820 0.000011051
      19
 0.000001032 0.000001308 0.000001760 0.000040335 0.000022820 0.000036057
 0.000027898 0.000023082 0.000047751
      20
 0.000000880 0.000000831 0.000002146 0.000030690 0.000020688 0.000025558
 0.000026558 0.000013919 0.000102653
      21
 0.000000917 0.000000494 0.000002864 0.000021175 0.000018187 0.000021482
 0.000016057 0.000016137 0.000166990
      22
 0.000000720 0.000000360 0.000003558 0.000012678 0.000016609 0.000014673
 0.000008772 0.000228731 0.000043061
      23
 0.000000194 0.000000609 0.000003728 0.000005662 0.000015910 0.000008958
 0.000276823 0.000004230 0.000102810
      24
-0.000000373 0.000001258 0.000003124 0.000014698 0.000000588 0.000006098
 0.000305285 0.000193683 0.000002270
      25
-0.000000741 0.000001801 0.000001996 0.000011818 0.000005600-0.000001968
 0.000314889 0.000302867 0.000002192
      26
-0.000000713 0.000001527 0.000000955 0.000008126 0.000005107-0.000002233
 0.000409172 0.000311654 0.000003048
      27
-0.000000285 0.000000553 0.000000278 0.000005516 0.000002999-0.000001536
 0.000488267 0.000304178 0.000003956
      28
-0.000000000-0.000000000 0.000000000 0.000001386 0.000004676-0.000001162
 0.000518087 0.000300542 0.000004326
      29
 0.000000358 0.000000782 0.000000040 0.000001637 0.000004975-0.000001254
 0.000513113 0.000299007 0.000005032
      30
 0.000001210 0.000002534 0.000000639 0.000002322 0.000005864-0.000001589
 0.000499184 0.000294704 0.000007011
      31
 0.000002098 0.000004083 0.000002456 0.000003206 0.000007128-0.000001964
 0.000479080 0.000288486 0.000009871
      32
 0.000002703 0.000004756 0.000005247 0.000003948 0.000008190-0.000001704
 0.000456817 0.000281585 0.000013045
      33
 0.000002989 0.000004695 0.000008169 0.000004315 0.000008563-0.000000573
 0.000436805 0.000275367 0.000015905
      34
 0.000003009 0.000004160 0.000004437 0.000008619 0.000010594 0.000000543
 0.000422971 0.000271065 0.000017883
      35
 0.000000331 0.000000187 0.000007104 0.000012284 0.000011759 0.000000789
 0.000418034 0.000269529 0.000018590
      36
 0.000000209 0.000000290 0.000008098 0.000012231 0.000011528-0.000000229
 0.000390371 0.000258783 0.000016956
      37
 0.000000116 0.000000292 0.000011266 0.000008087 0.000011286-0.000002522
 0.000330277 0.000216247 0.000012741
      38
 0.000000035 0.000000207 0.000007600 0.000007643 0.000008972-0.000004369
 0.000257009 0.000150814 0.000007753
      39
 0.000000022 0.000000116 0.000005322 0.000004293-0.000004195 0.000004913
 0.000180420 0.000004248 0.000083432
      40
 0.000000128 0.000000169 0.000003148 0.000000787-0.000001310 0.000001363
 0.000004052 0.000112375 0.000028896
      41
 0.000000354 0.000000400 0.000001417-0.000002507 0.000004022-0.000000220
 0.000007844 0.000062230-0.000005325
      42
 0.000000654 0.000000293 0.000000602-0.000006277 0.000010804 0.000014898
 0.000000265 0.000033762-0.000019373
      43
 0.000000955-0.000000306 0.000000503-0.000011094 0.000017296 0.000023461
 0.000001274 0.000023998-0.000018764
      44
 0.000001178-0.000000566 0.000000147-0.000015936 0.000020673 0.000031860
 0.000000007 0.000024782-0.000010890
      45
 0.000001260-0.000000634-0.000000057-0.000018099 0.000019065 0.000037944
 0.000025680-0.000006258-0.000000518
      46
 0.000001325-0.000000462 0.000000036-0.000012964 0.000022554 0.000038730
 0.000027339 0.000000306-0.000000606
      47
 0.000001452-0.000000031 0.000000229 0.000031603-0.000000389 0.000040876
 0.000017401 0.000030099 0.000000639
      48
 0.000000438 0.000001474 0.000000355 0.000042739 0.000043503 0.000012705
 0.000018593 0.000006943 0.000047943
      49
 0.000000710 0.000001230 0.000000431 0.000051879 0.000044951 0.000019129
 0.000017794 0.000015041 0.000059399
      50
 0.000000718 0.000000694 0.000000752 0.000056217 0.000042771 0.000017223
 0.000012362 0.000017897 0.000063984
      51
 0.000000882 0.000001167 0.000000683 0.000058757 0.000043440 0.000021259
 0.000014059 0.000025791 0.000064198
      52
 0.000001051 0.000001396 0.000001182 0.000057146 0.000041785 0.000023943
 0.000013476 0.000062508 0.000019634
      53
 0.000001176 0.000001370 0.000001855 0.000050576 0.000023001 0.000037045
 0.000011718 0.000062153 0.000000181
      54
 0.000001125 0.000001365 0.000002081 0.000039959 0.000018552 0.000029520
 0.000010285 0.000067664-0.000026164
      55
 0.000000764 0.000001899 0.000001591 0.000027261 0.000012180 0.000010050
 0.000020666 0.000084294-0.000047382
      56
 0.000000407 0.000000741 0.000002982 0.000006231 0.000014715 0.000010896
 0.000012650 0.000116474-0.000049716
      57
 0.000000148 0.000000120 0.000004488 0.000002837 0.000004392 0.000012058
 0.000007524 0.000165697-0.000023324
      58
 0.000000025 0.000000000 0.000005937 0.000002989-0.000002103 0.000012764
 0.000228765 0.000006365 0.000032803
      59
 0.000000023 0.000000188 0.000006682 0.000006048 0.000012849-0.000004197
 0.000297396 0.000109002 0.000008796
      60
 0.000000088 0.000000354 0.000009876 0.000006619 0.000012608-0.000002863
 0.000359605 0.000187316 0.000013122
      61
 0.000000158 0.000000363 0.000007047 0.000012004 0.000011803-0.000000389
 0.000402767 0.000246913 0.000017034
      62
 0.000000331 0.000000187 0.000007104 0.000012284 0.000011759 0.000000789
 0.000418034 0.000269529 0.000018590
      63
 0.000001260-0.000000634-0.000000057-0.000018099 0.000019065 0.000037944
 0.000025680-0.000006258-0.000000518
      64
 0.000001230-0.000000575 0.000000030-0.000018321 0.000019212 0.000038306
 0.000023273-0.000006351-0.000002033
      65
 0.000001138-0.000000418 0.000000273-0.000018942 0.000019624 0.000039310
 0.000016795-0.000006597-0.000006529
      66
 0.000000978-0.000000214 0.000000624-0.000019841 0.000020224 0.000040723
 0.000008109-0.000006910-0.000013671
      67
 0.000000765-0.000000020 0.000001005 0.000020907-0.000020833 0.000042237
-0.000007197-0.000000654-0.000022435
      68
 0.000000542 0.000000124 0.000001327 0.000021551-0.000021718 0.000043548
-0.000007401-0.000007829-0.000031016
      69
 0.000000372 0.000000205 0.000001523 0.000022027-0.000022323 0.000044422
-0.000007510-0.000012435-0.000037295
      70
 0.000000308 0.000000230 0.000001584 0.000022207-0.000022537 0.000044727
-0.000007543-0.000014014-0.000039597
      71
 0.000000718 0.000000694 0.000000752 0.000056217 0.000042771 0.000017223
 0.000012362 0.000017897 0.000063984
      72
 0.000000790 0.000000725 0.000000863 0.000056327 0.000043359 0.000016417
 0.000012392 0.000017370 0.000062170
      73
 0.000000989 0.000000825 0.000001172 0.000056653 0.000045022 0.000014220
 0.000012643 0.000015815 0.000056884
      74
 0.000001272 0.000001001 0.000001616 0.000057165 0.000047467 0.000011200
 0.000013362 0.000013371 0.000048798
      75
 0.000001574 0.000001242 0.000002106 0.000057787 0.000050238 0.000008054
 0.000014517 0.000010390 0.000039343
      76
 0.000001834 0.000002547 0.000001502 0.000058395 0.000052785 0.000005398
 0.000015766 0.000007469 0.000030510
      77
 0.000002005 0.000002851 0.000001707 0.000058841 0.000054576 0.000003655
 0.000016698 0.000005322 0.000024269
      78
 0.000002064 0.000002960 0.000001786 0.000059005 0.000055220 0.000003051
 0.000017040 0.000004531 0.000022021
 Norm of the difference between old and new effective charges:    0.00000000000000000000

 Norm of the difference between old and new force-constants:   0.00368797838689954773

 Broadening   0.0000
       1
-0.000000000-0.000000000 0.000000000 0.000001386 0.000004676-0.000001162
 0.000518087 0.000300542 0.000004326
       2
-0.000000238 0.000000620 0.000000418 0.000006475 0.000003069-0.000001245
 0.000487235 0.000298621 0.000003694
       3
-0.000000475 0.000001380 0.000001347 0.000009824 0.000005009-0.000000966
 0.000395259 0.000302710 0.000002080
       4
-0.000000125 0.000001260 0.000002338 0.000010168 0.000007101 0.000001099
 0.000281961 0.000290546 0.000000266
       5
 0.000000771 0.000000686 0.000003208 0.000007639 0.000006045 0.000008713
 0.000218839 0.000208588-0.000000668
       6
 0.000001771 0.000000266 0.000003714 0.000013432 0.000003552 0.000009493
 0.000000381 0.000150627 0.000131122
       7
 0.000002101 0.000000158 0.000003661 0.000021825-0.000001154 0.000008557
 0.000004273 0.000078000 0.000075285
       8
 0.000000212 0.000001364 0.000003123 0.000029150-0.000006660 0.000004597
 0.000011472 0.000020622 0.000034468
       9
 0.000000272 0.000000465 0.000002396 0.000032260-0.000013308 0.000021963
-0.000002231-0.000009059 0.000001049
      10
 0.000000300 0.000000204 0.000001807 0.000028455-0.000019720 0.000035158
-0.000007870-0.000016699-0.000024492
      11
 0.000000308 0.000000230 0.000001584 0.000022207-0.000022537 0.000044727
-0.000007543-0.000014014-0.000039597
      12
 0.000000432 0.000000409 0.000001610 0.000025479-0.000016595 0.000045607
-0.000003110-0.000011435-0.000037470
      13
 0.000000807 0.000000876 0.000001832 0.000034209-0.000002323 0.000047911
 0.000004938-0.000000745-0.000032286
      14
 0.000001440 0.000001405 0.000002145 0.000045339 0.000050938 0.000011953
 0.000009667-0.000004784-0.000003427
      15
 0.000001880 0.000002099 0.000002250 0.000054666 0.000053923 0.000016697
 0.000010843-0.000003735 0.000019393
      16
 0.000002064 0.000002960 0.000001786 0.000059005 0.000055220 0.000003051
 0.000017040 0.000004531 0.000022021
      17
 0.000001842 0.000002509 0.000001772 0.000055524 0.000052738 0.000018219
 0.000021964-0.000003925 0.000029868
      18
 0.000001432 0.000001900 0.000001707 0.000049007 0.000045784 0.000022773
 0.000025729 0.000030820 0.000011051
      19
 0.000001032 0.000001308 0.000001760 0.000040335 0.000022820 0.000036057
 0.000027898 0.000023082 0.000047751
      20
 0.000000880 0.000000831 0.000002146 0.000030690 0.000020688 0.000025558
 0.000026558 0.000013919 0.000102653
      21
 0.000000917 0.000000494 0.000002864 0.000021175 0.000018187 0.000021482
 0.000016057 0.000016137 0.000166990
      22
 0.000000720 0.000000360 0.000003558 0.000012678 0.000016609 0.000014673
 0.000008772 0.000228731 0.000043061
      23
 0.000000194 0.000000609 0.000003728 0.000005662 0.000015910 0.000008958
 0.000276823 0.000004230 0.000102810
      24
-0.000000373 0.000001258 0.000003124 0.000014698 0.000000588 0.000006098
 0.000305285 0.000193683 0.000002270
      25
-0.000000741 0.000001801 0.000001996 0.000011818 0.000005600-0.000001968
 0.000314889 0.000302867 0.000002192
      26
-0.000000713 0.000001527 0.000000955 0.000008126 0.000005107-0.000002233
 0.000409172 0.000311654 0.000003048
      27
-0.000000285 0.000000553 0.000000278 0.000005516 0.000002999-0.000001536
 0.000488267 0.000304178 0.000003956
      28
-0.000000000-0.000000000 0.000000000 0.000001386 0.000004676-0.000001162
 0.000518087 0.000300542 0.000004326
      29
 0.000000358 0.000000782 0.000000040 0.000001637 0.000004975-0.000001254
 0.000513113 0.000299007 0.000005032
      30
 0.000001210 0.000002534 0.000000639 0.000002322 0.000005864-0.000001589
 0.000499184 0.000294704 0.000007011
      31
 0.000002098 0.000004083 0.000002456 0.000003206 0.000007128-0.000001964
 0.000479080 0.000288486 0.000009871
      32
 0.000002703 0.000004756 0.000005247 0.000003948 0.000008190-0.000001704
 0.000456817 0.000281585 0.000013045
      33
 0.000002989 0.000004695 0.000008169 0.000004315 0.000008563-0.000000573
 0.000436805 0.000275367 0.000015905
      34
 0.000003009 0.000004160 0.000004437 0.000008619 0.000010594 0.000000543
 0.000422971 0.000271065 0.000017883
      35
 0.000000331 0.000000187 0.000007104 0.000012284 0.000011759 0.000000789
 0.000418034 0.000269529 0.000018590
      36
 0.000000209 0.000000290 0.000008098 0.000012231 0.000011528-0.000000229
 0.000390371 0.000258783 0.000016956
      37
 0.000000116 0.000000292 0.000011266 0.000008087 0.000011286-0.000002522
 0.000330277 0.000216247 0.000012741
      38
 0.000000035 0.000000207 0.000007600 0.000007643 0.000008972-0.000004369
 0.000257009 0.000150814 0.000007753
      39
 0.000000022 0.000000116 0.000005322 0.000004293-0.000004195 0.000004913
 0.000180420 0.000004248 0.000083432
      40
 0.000000128 0.000000169 0.000003148 0.000000787-0.000001310 0.000001363
 0.000004052 0.000112375 0.000028896
      41
 0.000000354 0.000000400 0.000001417-0.000002507 0.000004022-0.000000220
 0.000007844 0.000062230-0.000005325
      42
 0.000000654 0.000000293 0.000000602-0.000006277 0.000010804 0.000014898
 0.000000265 0.000033762-0.000019373
      43
 0.000000955-0.000000306 0.000000503-0.000011094 0.000017296 0.000023461
 0.000001274 0.000023998-0.000018764
      44
 0.000001178-0.000000566 0.000000147-0.000015936 0.000020673 0.000031860
 0.000000007 0.000024782-0.000010890
      45
 0.000001260-0.000000634-0.000000057-0.000018099 0.000019065 0.000037944
 0.000025680-0.000006258-0.000000518
      46
 0.000001325-0.000000462 0.000000036-0.000012964 0.000022554 0.000038730
 0.000027339 0.000000306-0.000000606
      47
 0.000001452-0.000000031 0.000000229 0.000031603-0.000000389 0.000040876
 0.000017401 0.000030099 0.000000639
      48
 0.000000438 0.000001474 0.000000355 0.000042739 0.000043503 0.000012705
 0.000018593 0.000006943 0.000047943
      49
 0.000000710 0.000001230 0.000000431 0.000051879 0.000044951 0.000019129
 0.000017794 0.000015041 0.000059399
      50
 0.000000718 0.000000694 0.000000752 0.000056217 0.000042771 0.000017223
 0.000012362 0.000017897 0.000063984
      51
 0.000000882 0.000001167 0.000000683 0.000058757 0.000043440 0.000021259
 0.000014059 0.000025791 0.000064198
      52
 0.000001051 0.000001396 0.000001182 0.000057146 0.000041785 0.000023943
 0.000013476 0.000062508 0.000019634
      53
 0.000001176 0.000001370 0.000001855 0.000050576 0.000023001 0.000037045
 0.000011718 0.000062153 0.000000181
      54
 0.000001125 0.000001365 0.000002081 0.000039959 0.000018552 0.000029520
 0.000010285 0.000067664-0.000026164
      55
 0.000000764 0.000001899 0.000001591 0.000027261 0.000012180 0.000010050
 0.000020666 0.000084294-0.000047382
      56
 0.000000407 0.000000741 0.000002982 0.000006231 0.000014715 0.000010896
 0.000012650 0.000116474-0.000049716
      57
 0.000000148 0.000000120 0.000004488 0.000002837 0.000004392 0.000012058
 0.000007524 0.000165697-0.000023324
      58
 0.000000025 0.000000000 0.000005937 0.000002989-0.000002103 0.000012764
 0.000228765 0.000006365 0.000032803
      59
 0.000000023 0.000000188 0.000006682 0.000006048 0.000012849-0.000004197
 0.000297396 0.000109002 0.000008796
      60
 0.000000088 0.000000354 0.000009876 0.000006619 0.000012608-0.000002863
 0.000359605 0.000187316 0.000013122
      61
 0.000000158 0.000000363 0.000007047 0.000012004 0.000011803-0.000000389
 0.000402767 0.000246913 0.000017034
      62
 0.000000331 0.000000187 0.000007104 0.000012284 0.000011759 0.000000789
 0.000418034 0.000269529 0.000018590
      63
 0.000001260-0.000000634-0.000000057-0.000018099 0.000019065 0.000037944
 0.000025680-0.000006258-0.000000518
      64
 0.000001230-0.000000575 0.000000030-0.000018321 0.000019212 0.000038306
 0.000023273-0.000006351-0.000002033
      65
 0.000001138-0.000000418 0.000000273-0.000018942 0.000019624 0.000039310
 0.000016795-0.000006597-0.000006529
      66
 0.000000978-0.000000214 0.000000624-0.000019841 0.000020224 0.000040723
 0.000008109-0.000006910-0.000013671
      67
 0.000000765-0.000000020 0.000001005 0.000020907-0.000020833 0.000042237
-0.000007197-0.000000654-0.000022435
      68
 0.000000542 0.000000124 0.000001327 0.000021551-0.000021718 0.000043548
-0.000007401-0.000007829-0.000031016
      69
 0.000000372 0.000000205 0.000001523 0.000022027-0.000022323 0.000044422
-0.000007510-0.000012435-0.000037295
      70
 0.000000308 0.000000230 0.000001584 0.000022207-0.000022537 0.000044727
-0.000007543-0.000014014-0.000039597
      71
 0.000000718 0.000000694 0.000000752 0.000056217 0.000042771 0.000017223
 0.000012362 0.000017897 0.000063984
      72
 0.000000790 0.000000725 0.000000863 0.000056327 0.000043359 0.000016417
 0.000012392 0.000017370 0.000062170
      73
 0.000000989 0.000000825 0.000001172 0.000056653 0.000045022 0.000014220
 0.000012643 0.000015815 0.000056884
      74
 0.000001272 0.000001001 0.000001616 0.000057165 0.000047467 0.000011200
 0.000013362 0.000013371 0.000048798
      75
 0.000001574 0.000001242 0.000002106 0.000057787 0.000050238 0.000008054
 0.000014517 0.000010390 0.000039343
      76
 0.000001834 0.000002547 0.000001502 0.000058395 0.000052785 0.000005398
 0.000015766 0.000007469 0.000030510
      77
 0.000002005 0.000002851 0.000001707 0.000058841 0.000054576 0.000003655
 0.000016698 0.000005322 0.000024269
      78
 0.000002064 0.000002960 0.000001786 0.000059005 0.000055220 0.000003051
 0.000017040 0.000004531 0.000022021
 Norm of the difference between old and new effective charges:    0.00000000000000000000

 Norm of the difference between old and new force-constants:   0.00368797838689954773

 Broadening   0.0000
       1
-0.000000000-0.000000000 0.000000000 0.000001386 0.000004676-0.000001162
 0.000518087 0.000300542 0.000004326
       2
-0.000000238 0.000000620 0.000000418 0.000006475 0.000003069-0.000001245
 0.000487235 0.000298621 0.000003694
       3
-0.000000475 0.000001380 0.000001347 0.000009824 0.000005009-0.000000966
 0.000395259 0.000302710 0.000002080
       4
-0.000000125 0.000001260 0.000002338 0.000010168 0.000007101 0.000001099
 0.000281961 0.000290546 0.000000266
       5
 0.000000771 0.000000686 0.000003208 0.000007639 0.000006045 0.000008713
 0.000218839 0.000208588-0.000000668
       6
 0.000001771 0.000000266 0.000003714 0.000013432 0.000003552 0.000009493
 0.000000381 0.000150627 0.000131122
       7
 0.000002101 0.000000158 0.000003661 0.000021825-0.000001154 0.000008557
 0.000004273 0.000078000 0.000075285
       8
 0.000000212 0.000001364 0.000003123 0.000029150-0.000006660 0.000004597
 0.000011472 0.000020622 0.000034468
       9
 0.000000272 0.000000465 0.000002396 0.000032260-0.000013308 0.000021963
-0.000002231-0.000009059 0.000001049
      10
 0.000000300 0.000000204 0.000001807 0.000028455-0.000019720 0.000035158
-0.000007870-0.000016699-0.000024492
      11
 0.000000308 0.000000230 0.000001584 0.000022207-0.000022537 0.000044727
-0.000007543-0.000014014-0.000039597
      12
 0.000000432 0.000000409 0.000001610 0.000025479-0.000016595 0.000045607
-0.000003110-0.000011435-0.000037470
      13
 0.000000807 0.000000876 0.000001832 0.000034209-0.000002323 0.000047911
 0.000004938-0.000000745-0.000032286
      14
 0.000001440 0.000001405 0.000002145 0.000045339 0.000050938 0.000011953
 0.000009667-0.000004784-0.000003427
      15
 0.000001880 0.000002099 0.000002250 0.000054666 0.000053923 0.000016697
 0.000010843-0.000003735 0.000019393
      16
 0.000002064 0.000002960 0.000001786 0.000059005 0.000055220 0.000003051
 0.000017040 0.000004531 0.000022021
      17
 0.000001842 0.000002509 0.000001772 0.000055524 0.000052738 0.000018219
 0.000021964-0.000003925 0.000029868
      18
 0.000001432 0.000001900 0.000001707 0.000049007 0.000045784 0.000022773
 0.000025729 0.000030820 0.000011051
      19
 0.000001032 0.000001308 0.000001760 0.000040335 0.000022820 0.000036057
 0.000027898 0.000023082 0.000047751
      20
 0.000000880 0.000000831 0.000002146 0.000030690 0.000020688 0.000025558
 0.000026558 0.000013919 0.000102653
      21
 0.000000917 0.000000494 0.000002864 0.000021175 0.000018187 0.000021482
 0.000016057 0.000016137 0.000166990
      22
 0.000000720 0.000000360 0.000003558 0.000012678 0.000016609 0.000014673
 0.000008772 0.000228731 0.000043061
      23
 0.000000194 0.000000609 0.000003728 0.000005662 0.000015910 0.000008958
 0.000276823 0.000004230 0.000102810
      24
-0.000000373 0.000001258 0.000003124 0.000014698 0.000000588 0.000006098
 0.000305285 0.000193683 0.000002270
      25
-0.000000741 0.000001801 0.000001996 0.000011818 0.000005600-0.000001968
 0.000314889 0.000302867 0.000002192
      26
-0.000000713 0.000001527 0.000000955 0.000008126 0.000005107-0.000002233
 0.000409172 0.000311654 0.000003048
      27
-0.000000285 0.000000553 0.000000278 0.000005516 0.000002999-0.000001536
 0.000488267 0.000304178 0.000003956
      28
-0.000000000-0.000000000 0.000000000 0.000001386 0.000004676-0.000001162
 0.000518087 0.000300542 0.000004326
      29
 0.000000358 0.000000782 0.000000040 0.000001637 0.000004975-0.000001254
 0.000513113 0.000299007 0.000005032
      30
 0.000001210 0.000002534 0.000000639 0.000002322 0.000005864-0.000001589
 0.000499184 0.000294704 0.000007011
      31
 0.000002098 0.000004083 0.000002456 0.000003206 0.000007128-0.000001964
 0.000479080 0.000288486 0.000009871
      32
 0.000002703 0.000004756 0.000005247 0.000003948 0.000008190-0.000001704
 0.000456817 0.000281585 0.000013045
      33
 0.000002989 0.000004695 0.000008169 0.000004315 0.000008563-0.000000573
 0.000436805 0.000275367 0.000015905
      34
 0.000003009 0.000004160 0.000004437 0.000008619 0.000010594 0.000000543
 0.000422971 0.000271065 0.000017883
      35
 0.000000331 0.000000187 0.000007104 0.000012284 0.000011759 0.000000789
 0.000418034 0.000269529 0.000018590
      36
 0.000000209 0.000000290 0.000008098 0.000012231 0.000011528-0.000000229
 0.000390371 0.000258783 0.000016956
      37
 0.000000116 0.000000292 0.000011266 0.000008087 0.000011286-0.000002522
 0.000330277 0.000216247 0.000012741
      38
 0.000000035 0.000000207 0.000007600 0.000007643 0.000008972-0.000004369
 0.000257009 0.000150814 0.000007753
      39
 0.000000022 0.000000116 0.000005322 0.000004293-0.000004195 0.000004913
 0.000180420 0.000004248 0.000083432
      40
 0.000000128 0.000000169 0.000003148 0.000000787-0.000001310 0.000001363
 0.000004052 0.000112375 0.000028896
      41
 0.000000354 0.000000400 0.000001417-0.000002507 0.000004022-0.000000220
 0.000007844 0.000062230-0.000005325
      42
 0.000000654 0.000000293 0.000000602-0.000006277 0.000010804 0.000014898
 0.000000265 0.000033762-0.000019373
      43
 0.000000955-0.000000306 0.000000503-0.000011094 0.000017296 0.000023461
 0.000001274 0.000023998-0.000018764
      44
 0.000001178-0.000000566 0.000000147-0.000015936 0.000020673 0.000031860
 0.000000007 0.000024782-0.000010890
      45
 0.000001260-0.000000634-0.000000057-0.000018099 0.000019065 0.000037944
 0.000025680-0.000006258-0.000000518
      46
 0.000001325-0.000000462 0.000000036-0.000012964 0.000022554 0.000038730
 0.000027339 0.000000306-0.000000606
      47
 0.000001452-0.000000031 0.000000229 0.000031603-0.000000389 0.000040876
 0.000017401 0.000030099 0.000000639
      48
 0.000000438 0.000001474 0.000000355 0.000042739 0.000043503 0.000012705
 0.000018593 0.000006943 0.000047943
      49
 0.000000710 0.000001230 0.000000431 0.000051879 0.000044951 0.000019129
 0.000017794 0.000015041 0.000059399
      50
 0.000000718 0.000000694 0.000000752 0.000056217 0.000042771 0.000017223
 0.000012362 0.000017897 0.000063984
      51
 0.000000882 0.000001167 0.000000683 0.000058757 0.000043440 0.000021259
 0.000014059 0.000025791 0.000064198
      52
 0.000001051 0.000001396 0.000001182 0.000057146 0.000041785 0.000023943
 0.000013476 0.000062508 0.000019634
      53
 0.000001176 0.000001370 0.000001855 0.000050576 0.000023001 0.000037045
 0.000011718 0.000062153 0.000000181
      54
 0.000001125 0.000001365 0.000002081 0.000039959 0.000018552 0.000029520
 0.000010285 0.000067664-0.000026164
      55
 0.000000764 0.000001899 0.000001591 0.000027261 0.000012180 0.000010050
 0.000020666 0.000084294-0.000047382
      56
 0.000000407 0.000000741 0.000002982 0.000006231 0.000014715 0.000010896
 0.000012650 0.000116474-0.000049716
      57
 0.000000148 0.000000120 0.000004488 0.000002837 0.000004392 0.000012058
 0.000007524 0.000165697-0.000023324
      58
 0.000000025 0.000000000 0.000005937 0.000002989-0.000002103 0.000012764
 0.000228765 0.000006365 0.000032803
      59
 0.000000023 0.000000188 0.000006682 0.000006048 0.000012849-0.000004197
 0.000297396 0.000109002 0.000008796
      60
 0.000000088 0.000000354 0.000009876 0.000006619 0.000012608-0.000002863
 0.000359605 0.000187316 0.000013122
      61
 0.000000158 0.000000363 0.000007047 0.000012004 0.000011803-0.000000389
 0.000402767 0.000246913 0.000017034
      62
 0.000000331 0.000000187 0.000007104 0.000012284 0.000011759 0.000000789
 0.000418034 0.000269529 0.000018590
      63
 0.000001260-0.000000634-0.000000057-0.000018099 0.000019065 0.000037944
 0.000025680-0.000006258-0.000000518
      64
 0.000001230-0.000000575 0.000000030-0.000018321 0.000019212 0.000038306
 0.000023273-0.000006351-0.000002033
      65
 0.000001138-0.000000418 0.000000273-0.000018942 0.000019624 0.000039310
 0.000016795-0.000006597-0.000006529
      66
 0.000000978-0.000000214 0.000000624-0.000019841 0.000020224 0.000040723
 0.000008109-0.000006910-0.000013671
      67
 0.000000765-0.000000020 0.000001005 0.000020907-0.000020833 0.000042237
-0.000007197-0.000000654-0.000022435
      68
 0.000000542 0.000000124 0.000001327 0.000021551-0.000021718 0.000043548
-0.000007401-0.000007829-0.000031016
      69
 0.000000372 0.000000205 0.000001523 0.000022027-0.000022323 0.000044422
-0.000007510-0.000012435-0.000037295
      70
 0.000000308 0.000000230 0.000001584 0.000022207-0.000022537 0.000044727
-0.000007543-0.000014014-0.000039597
      71
 0.000000718 0.000000694 0.000000752 0.000056217 0.000042771 0.000017223
 0.000012362 0.000017897 0.000063984
      72
 0.000000790 0.000000725 0.000000863 0.000056327 0.000043359 0.000016417
 0.000012392 0.000017370 0.000062170
      73
 0.000000989 0.000000825 0.000001172 0.000056653 0.000045022 0.000014220
 0.000012643 0.000015815 0.000056884
      74
 0.000001272 0.000001001 0.000001616 0.000057165 0.000047467 0.000011200
 0.000013362 0.000013371 0.000048798
      75
 0.000001574 0.000001242 0.000002106 0.000057787 0.000050238 0.000008054
 0.000014517 0.000010390 0.000039343
      76
 0.000001834 0.000002547 0.000001502 0.000058395 0.000052785 0.000005398
 0.000015766 0.000007469 0.000030510
      77
 0.000002005 0.000002851 0.000001707 0.000058841 0.000054576 0.000003655
 0.000016698 0.000005322 0.000024269
      78
 0.000002064 0.000002960 0.000001786 0.000059005 0.000055220 0.000003051
 0.000017040 0.000004531 0.000022021
 Norm of the difference between old and new effective charges:    0.00000000000000000000

 Norm of the difference between old and new force-constants:   0.00368797838689954773

 Broadening   0.0000
       1
-0.000000000-0.000000000 0.000000000 0.000001386 0.000004676-0.000001162
 0.000518087 0.000300542 0.000004326
       2
-0.000000238 0.000000620 0.000000418 0.000006475 0.000003069-0.000001245
 0.000487235 0.000298621 0.000003694
       3
-0.000000475 0.000001380 0.000001347 0.000009824 0.000005009-0.000000966
 0.000395259 0.000302710 0.000002080
       4
-0.000000125 0.000001260 0.000002338 0.000010168 0.000007101 0.000001099
 0.000281961 0.000290546 0.000000266
       5
 0.000000771 0.000000686 0.000003208 0.000007639 0.000006045 0.000008713
 0.000218839 0.000208588-0.000000668
       6
 0.000001771 0.000000266 0.000003714 0.000013432 0.000003552 0.000009493
 0.000000381 0.000150627 0.000131122
       7
 0.000002101 0.000000158 0.000003661 0.000021825-0.000001154 0.000008557
 0.000004273 0.000078000 0.000075285
       8
 0.000000212 0.000001364 0.000003123 0.000029150-0.000006660 0.000004597
 0.000011472 0.000020622 0.000034468
       9
 0.000000272 0.000000465 0.000002396 0.000032260-0.000013308 0.000021963
-0.000002231-0.000009059 0.000001049
      10
 0.000000300 0.000000204 0.000001807 0.000028455-0.000019720 0.000035158
-0.000007870-0.000016699-0.000024492
      11
 0.000000308 0.000000230 0.000001584 0.000022207-0.000022537 0.000044727
-0.000007543-0.000014014-0.000039597
      12
 0.000000432 0.000000409 0.000001610 0.000025479-0.000016595 0.000045607
-0.000003110-0.000011435-0.000037470
      13
 0.000000807 0.000000876 0.000001832 0.000034209-0.000002323 0.000047911
 0.000004938-0.000000745-0.000032286
      14
 0.000001440 0.000001405 0.000002145 0.000045339 0.000050938 0.000011953
 0.000009667-0.000004784-0.000003427
      15
 0.000001880 0.000002099 0.000002250 0.000054666 0.000053923 0.000016697
 0.000010843-0.000003735 0.000019393
      16
 0.000002064 0.000002960 0.000001786 0.000059005 0.000055220 0.000003051
 0.000017040 0.000004531 0.000022021
      17
 0.000001842 0.000002509 0.000001772 0.000055524 0.000052738 0.000018219
 0.000021964-0.000003925 0.000029868
      18
 0.000001432 0.000001900 0.000001707 0.000049007 0.000045784 0.000022773
 0.000025729 0.000030820 0.000011051
      19
 0.000001032 0.000001308 0.000001760 0.000040335 0.000022820 0.000036057
 0.000027898 0.000023082 0.000047751
      20
 0.000000880 0.000000831 0.000002146 0.000030690 0.000020688 0.000025558
 0.000026558 0.000013919 0.000102653
      21
 0.000000917 0.000000494 0.000002864 0.000021175 0.000018187 0.000021482
 0.000016057 0.000016137 0.000166990
      22
 0.000000720 0.000000360 0.000003558 0.000012678 0.000016609 0.000014673
 0.000008772 0.000228731 0.000043061
      23
 0.000000194 0.000000609 0.000003728 0.000005662 0.000015910 0.000008958
 0.000276823 0.000004230 0.000102810
      24
-0.000000373 0.000001258 0.000003124 0.000014698 0.000000588 0.000006098
 0.000305285 0.000193683 0.000002270
      25
-0.000000741 0.000001801 0.000001996 0.000011818 0.000005600-0.000001968
 0.000314889 0.000302867 0.000002192
      26
-0.000000713 0.000001527 0.000000955 0.000008126 0.000005107-0.000002233
 0.000409172 0.000311654 0.000003048
      27
-0.000000285 0.000000553 0.000000278 0.000005516 0.000002999-0.000001536
 0.000488267 0.000304178 0.000003956
      28
-0.000000000-0.000000000 0.000000000 0.000001386 0.000004676-0.000001162
 0.000518087 0.000300542 0.000004326
      29
 0.000000358 0.000000782 0.000000040 0.000001637 0.000004975-0.000001254
 0.000513113 0.000299007 0.000005032
      30
 0.000001210 0.000002534 0.000000639 0.000002322 0.000005864-0.000001589
 0.000499184 0.000294704 0.000007011
      31
 0.000002098 0.000004083 0.000002456 0.000003206 0.000007128-0.000001964
 0.000479080 0.000288486 0.000009871
      32
 0.000002703 0.000004756 0.000005247 0.000003948 0.000008190-0.000001704
 0.000456817 0.000281585 0.000013045
      33
 0.000002989 0.000004695 0.000008169 0.000004315 0.000008563-0.000000573
 0.000436805 0.000275367 0.000015905
      34
 0.000003009 0.000004160 0.000004437 0.000008619 0.000010594 0.000000543
 0.000422971 0.000271065 0.000017883
      35
 0.000000331 0.000000187 0.000007104 0.000012284 0.000011759 0.000000789
 0.000418034 0.000269529 0.000018590
      36
 0.000000209 0.000000290 0.000008098 0.000012231 0.000011528-0.000000229
 0.000390371 0.000258783 0.000016956
      37
 0.000000116 0.000000292 0.000011266 0.000008087 0.000011286-0.000002522
 0.000330277 0.000216247 0.000012741
      38
 0.000000035 0.000000207 0.000007600 0.000007643 0.000008972-0.000004369
 0.000257009 0.000150814 0.000007753
      39
 0.000000022 0.000000116 0.000005322 0.000004293-0.000004195 0.000004913
 0.000180420 0.000004248 0.000083432
      40
 0.000000128 0.000000169 0.000003148 0.000000787-0.000001310 0.000001363
 0.000004052 0.000112375 0.000028896
      41
 0.000000354 0.000000400 0.000001417-0.000002507 0.000004022-0.000000220
 0.000007844 0.000062230-0.000005325
      42
 0.000000654 0.000000293 0.000000602-0.000006277 0.000010804 0.000014898
 0.000000265 0.000033762-0.000019373
      43
 0.000000955-0.000000306 0.000000503-0.000011094 0.000017296 0.000023461
 0.000001274 0.000023998-0.000018764
      44
 0.000001178-0.000000566 0.000000147-0.000015936 0.000020673 0.000031860
 0.000000007 0.000024782-0.000010890
      45
 0.000001260-0.000000634-0.000000057-0.000018099 0.000019065 0.000037944
 0.000025680-0.000006258-0.000000518
      46
 0.000001325-0.000000462 0.000000036-0.000012964 0.000022554 0.000038730
 0.000027339 0.000000306-0.000000606
      47
 0.000001452-0.000000031 0.000000229 0.000031603-0.000000389 0.000040876
 0.000017401 0.000030099 0.000000639
      48
 0.000000438 0.000001474 0.000000355 0.000042739 0.000043503 0.000012705
 0.000018593 0.000006943 0.000047943
      49
 0.000000710 0.000001230 0.000000431 0.000051879 0.000044951 0.000019129
 0.000017794 0.000015041 0.000059399
      50
 0.000000718 0.000000694 0.000000752 0.000056217 0.000042771 0.000017223
 0.000012362 0.000017897 0.000063984
      51
 0.000000882 0.000001167 0.000000683 0.000058757 0.000043440 0.000021259
 0.000014059 0.000025791 0.000064198
      52
 0.000001051 0.000001396 0.000001182 0.000057146 0.000041785 0.000023943
 0.000013476 0.000062508 0.000019634
      53
 0.000001176 0.000001370 0.000001855 0.000050576 0.000023001 0.000037045
 0.000011718 0.000062153 0.000000181
      54
 0.000001125 0.000001365 0.000002081 0.000039959 0.000018552 0.000029520
 0.000010285 0.000067664-0.000026164
      55
 0.000000764 0.000001899 0.000001591 0.000027261 0.000012180 0.000010050
 0.000020666 0.000084294-0.000047382
      56
 0.000000407 0.000000741 0.000002982 0.000006231 0.000014715 0.000010896
 0.000012650 0.000116474-0.000049716
      57
 0.000000148 0.000000120 0.000004488 0.000002837 0.000004392 0.000012058
 0.000007524 0.000165697-0.000023324
      58
 0.000000025 0.000000000 0.000005937 0.000002989-0.000002103 0.000012764
 0.000228765 0.000006365 0.000032803
      59
 0.000000023 0.000000188 0.000006682 0.000006048 0.000012849-0.000004197
 0.000297396 0.000109002 0.000008796
      60
 0.000000088 0.000000354 0.000009876 0.000006619 0.000012608-0.000002863
 0.000359605 0.000187316 0.000013122
      61
 0.000000158 0.000000363 0.000007047 0.000012004 0.000011803-0.000000389
 0.000402767 0.000246913 0.000017034
      62
 0.000000331 0.000000187 0.000007104 0.000012284 0.000011759 0.000000789
 0.000418034 0.000269529 0.000018590
      63
 0.000001260-0.000000634-0.000000057-0.000018099 0.000019065 0.000037944
 0.000025680-0.000006258-0.000000518
      64
 0.000001230-0.000000575 0.000000030-0.000018321 0.000019212 0.000038306
 0.000023273-0.000006351-0.000002033
      65
 0.000001138-0.000000418 0.000000273-0.000018942 0.000019624 0.000039310
 0.000016795-0.000006597-0.000006529
      66
 0.000000978-0.000000214 0.000000624-0.000019841 0.000020224 0.000040723
 0.000008109-0.000006910-0.000013671
      67
 0.000000765-0.000000020 0.000001005 0.000020907-0.000020833 0.000042237
-0.000007197-0.000000654-0.000022435
      68
 0.000000542 0.000000124 0.000001327 0.000021551-0.000021718 0.000043548
-0.000007401-0.000007829-0.000031016
      69
 0.000000372 0.000000205 0.000001523 0.000022027-0.000022323 0.000044422
-0.000007510-0.000012435-0.000037295
      70
 0.000000308 0.000000230 0.000001584 0.000022207-0.000022537 0.000044727
-0.000007543-0.000014014-0.000039597
      71
 0.000000718 0.000000694 0.000000752 0.000056217 0.000042771 0.000017223
 0.000012362 0.000017897 0.000063984
      72
 0.000000790 0.000000725 0.000000863 0.000056327 0.000043359 0.000016417
 0.000012392 0.000017370 0.000062170
      73
 0.000000989 0.000000825 0.000001172 0.000056653 0.000045022 0.000014220
 0.000012643 0.000015815 0.000056884
      74
 0.000001272 0.000001001 0.000001616 0.000057165 0.000047467 0.000011200
 0.000013362 0.000013371 0.000048798
      75
 0.000001574 0.000001242 0.000002106 0.000057787 0.000050238 0.000008054
 0.000014517 0.000010390 0.000039343
      76
 0.000001834 0.000002547 0.000001502 0.000058395 0.000052785 0.000005398
 0.000015766 0.000007469 0.000030510
      77
 0.000002005 0.000002851 0.000001707 0.000058841 0.000054576 0.000003655
 0.000016698 0.000005322 0.000024269
      78
 0.000002064 0.000002960 0.000001786 0.000059005 0.000055220 0.000003051
 0.000017040 0.000004531 0.000022021
 Norm of the difference between old and new effective charges:    0.00000000000000000000

 Norm of the difference between old and new force-constants:   0.00368797838689954773

 Broadening   0.0000
       1
-0.000000000-0.000000000 0.000000000 0.000001386 0.000004676-0.000001162
 0.000518087 0.000300542 0.000004326
       2
-0.000000238 0.000000620 0.000000418 0.000006475 0.000003069-0.000001245
 0.000487235 0.000298621 0.000003694
       3
-0.000000475 0.000001380 0.000001347 0.000009824 0.000005009-0.000000966
 0.000395259 0.000302710 0.000002080
       4
-0.000000125 0.000001260 0.000002338 0.000010168 0.000007101 0.000001099
 0.000281961 0.000290546 0.000000266
       5
 0.000000771 0.000000686 0.000003208 0.000007639 0.000006045 0.000008713
 0.000218839 0.000208588-0.000000668
       6
 0.000001771 0.000000266 0.000003714 0.000013432 0.000003552 0.000009493
 0.000000381 0.000150627 0.000131122
       7
 0.000002101 0.000000158 0.000003661 0.000021825-0.000001154 0.000008557
 0.000004273 0.000078000 0.000075285
       8
 0.000000212 0.000001364 0.000003123 0.000029150-0.000006660 0.000004597
 0.000011472 0.000020622 0.000034468
       9
 0.000000272 0.000000465 0.000002396 0.000032260-0.000013308 0.000021963
-0.000002231-0.000009059 0.000001049
      10
 0.000000300 0.000000204 0.000001807 0.000028455-0.000019720 0.000035158
-0.000007870-0.000016699-0.000024492
      11
 0.000000308 0.000000230 0.000001584 0.000022207-0.000022537 0.000044727
-0.000007543-0.000014014-0.000039597
      12
 0.000000432 0.000000409 0.000001610 0.000025479-0.000016595 0.000045607
-0.000003110-0.000011435-0.000037470
      13
 0.000000807 0.000000876 0.000001832 0.000034209-0.000002323 0.000047911
 0.000004938-0.000000745-0.000032286
      14
 0.000001440 0.000001405 0.000002145 0.000045339 0.000050938 0.000011953
 0.000009667-0.000004784-0.000003427
      15
 0.000001880 0.000002099 0.000002250 0.000054666 0.000053923 0.000016697
 0.000010843-0.000003735 0.000019393
      16
 0.000002064 0.000002960 0.000001786 0.000059005 0.000055220 0.000003051
 0.000017040 0.000004531 0.000022021
      17
 0.000001842 0.000002509 0.000001772 0.000055524 0.000052738 0.000018219
 0.000021964-0.000003925 0.000029868
      18
 0.000001432 0.000001900 0.000001707 0.000049007 0.000045784 0.000022773
 0.000025729 0.000030820 0.000011051
      19
 0.000001032 0.000001308 0.000001760 0.000040335 0.000022820 0.000036057
 0.000027898 0.000023082 0.000047751
      20
 0.000000880 0.000000831 0.000002146 0.000030690 0.000020688 0.000025558
 0.000026558 0.000013919 0.000102653
      21
 0.000000917 0.000000494 0.000002864 0.000021175 0.000018187 0.000021482
 0.000016057 0.000016137 0.000166990
      22
 0.000000720 0.000000360 0.000003558 0.000012678 0.000016609 0.000014673
 0.000008772 0.000228731 0.000043061
      23
 0.000000194 0.000000609 0.000003728 0.000005662 0.000015910 0.000008958
 0.000276823 0.000004230 0.000102810
      24
-0.000000373 0.000001258 0.000003124 0.000014698 0.000000588 0.000006098
 0.000305285 0.000193683 0.000002270
      25
-0.000000741 0.000001801 0.000001996 0.000011818 0.000005600-0.000001968
 0.000314889 0.000302867 0.000002192
      26
-0.000000713 0.000001527 0.000000955 0.000008126 0.000005107-0.000002233
 0.000409172 0.000311654 0.000003048
      27
-0.000000285 0.000000553 0.000000278 0.000005516 0.000002999-0.000001536
 0.000488267 0.000304178 0.000003956
      28
-0.000000000-0.000000000 0.000000000 0.000001386 0.000004676-0.000001162
 0.000518087 0.000300542 0.000004326
      29
 0.000000358 0.000000782 0.000000040 0.000001637 0.000004975-0.000001254
 0.000513113 0.000299007 0.000005032
      30
 0.000001210 0.000002534 0.000000639 0.000002322 0.000005864-0.000001589
 0.000499184 0.000294704 0.000007011
      31
 0.000002098 0.000004083 0.000002456 0.000003206 0.000007128-0.000001964
 0.000479080 0.000288486 0.000009871
      32
 0.000002703 0.000004756 0.000005247 0.000003948 0.000008190-0.000001704
 0.000456817 0.000281585 0.000013045
      33
 0.000002989 0.000004695 0.000008169 0.000004315 0.000008563-0.000000573
 0.000436805 0.000275367 0.000015905
      34
 0.000003009 0.000004160 0.000004437 0.000008619 0.000010594 0.000000543
 0.000422971 0.000271065 0.000017883
      35
 0.000000331 0.000000187 0.000007104 0.000012284 0.000011759 0.000000789
 0.000418034 0.000269529 0.000018590
      36
 0.000000209 0.000000290 0.000008098 0.000012231 0.000011528-0.000000229
 0.000390371 0.000258783 0.000016956
      37
 0.000000116 0.000000292 0.000011266 0.000008087 0.000011286-0.000002522
 0.000330277 0.000216247 0.000012741
      38
 0.000000035 0.000000207 0.000007600 0.000007643 0.000008972-0.000004369
 0.000257009 0.000150814 0.000007753
      39
 0.000000022 0.000000116 0.000005322 0.000004293-0.000004195 0.000004913
 0.000180420 0.000004248 0.000083432
      40
 0.000000128 0.000000169 0.000003148 0.000000787-0.000001310 0.000001363
 0.000004052 0.000112375 0.000028896
      41
 0.000000354 0.000000400 0.000001417-0.000002507 0.000004022-0.000000220
 0.000007844 0.000062230-0.000005325
      42
 0.000000654 0.000000293 0.000000602-0.000006277 0.000010804 0.000014898
 0.000000265 0.000033762-0.000019373
      43
 0.000000955-0.000000306 0.000000503-0.000011094 0.000017296 0.000023461
 0.000001274 0.000023998-0.000018764
      44
 0.000001178-0.000000566 0.000000147-0.000015936 0.000020673 0.000031860
 0.000000007 0.000024782-0.000010890
      45
 0.000001260-0.000000634-0.000000057-0.000018099 0.000019065 0.000037944
 0.000025680-0.000006258-0.000000518
      46
 0.000001325-0.000000462 0.000000036-0.000012964 0.000022554 0.000038730
 0.000027339 0.000000306-0.000000606
      47
 0.000001452-0.000000031 0.000000229 0.000031603-0.000000389 0.000040876
 0.000017401 0.000030099 0.000000639
      48
 0.000000438 0.000001474 0.000000355 0.000042739 0.000043503 0.000012705
 0.000018593 0.000006943 0.000047943
      49
 0.000000710 0.000001230 0.000000431 0.000051879 0.000044951 0.000019129
 0.000017794 0.000015041 0.000059399
      50
 0.000000718 0.000000694 0.000000752 0.000056217 0.000042771 0.000017223
 0.000012362 0.000017897 0.000063984
      51
 0.000000882 0.000001167 0.000000683 0.000058757 0.000043440 0.000021259
 0.000014059 0.000025791 0.000064198
      52
 0.000001051 0.000001396 0.000001182 0.000057146 0.000041785 0.000023943
 0.000013476 0.000062508 0.000019634
      53
 0.000001176 0.000001370 0.000001855 0.000050576 0.000023001 0.000037045
 0.000011718 0.000062153 0.000000181
      54
 0.000001125 0.000001365 0.000002081 0.000039959 0.000018552 0.000029520
 0.000010285 0.000067664-0.000026164
      55
 0.000000764 0.000001899 0.000001591 0.000027261 0.000012180 0.000010050
 0.000020666 0.000084294-0.000047382
      56
 0.000000407 0.000000741 0.000002982 0.000006231 0.000014715 0.000010896
 0.000012650 0.000116474-0.000049716
      57
 0.000000148 0.000000120 0.000004488 0.000002837 0.000004392 0.000012058
 0.000007524 0.000165697-0.000023324
      58
 0.000000025 0.000000000 0.000005937 0.000002989-0.000002103 0.000012764
 0.000228765 0.000006365 0.000032803
      59
 0.000000023 0.000000188 0.000006682 0.000006048 0.000012849-0.000004197
 0.000297396 0.000109002 0.000008796
      60
 0.000000088 0.000000354 0.000009876 0.000006619 0.000012608-0.000002863
 0.000359605 0.000187316 0.000013122
      61
 0.000000158 0.000000363 0.000007047 0.000012004 0.000011803-0.000000389
 0.000402767 0.000246913 0.000017034
      62
 0.000000331 0.000000187 0.000007104 0.000012284 0.000011759 0.000000789
 0.000418034 0.000269529 0.000018590
      63
 0.000001260-0.000000634-0.000000057-0.000018099 0.000019065 0.000037944
 0.000025680-0.000006258-0.000000518
      64
 0.000001230-0.000000575 0.000000030-0.000018321 0.000019212 0.000038306
 0.000023273-0.000006351-0.000002033
      65
 0.000001138-0.000000418 0.000000273-0.000018942 0.000019624 0.000039310
 0.000016795-0.000006597-0.000006529
      66
 0.000000978-0.000000214 0.000000624-0.000019841 0.000020224 0.000040723
 0.000008109-0.000006910-0.000013671
      67
 0.000000765-0.000000020 0.000001005 0.000020907-0.000020833 0.000042237
-0.000007197-0.000000654-0.000022435
      68
 0.000000542 0.000000124 0.000001327 0.000021551-0.000021718 0.000043548
-0.000007401-0.000007829-0.000031016
      69
 0.000000372 0.000000205 0.000001523 0.000022027-0.000022323 0.000044422
-0.000007510-0.000012435-0.000037295
      70
 0.000000308 0.000000230 0.000001584 0.000022207-0.000022537 0.000044727
-0.000007543-0.000014014-0.000039597
      71
 0.000000718 0.000000694 0.000000752 0.000056217 0.000042771 0.000017223
 0.000012362 0.000017897 0.000063984
      72
 0.000000790 0.000000725 0.000000863 0.000056327 0.000043359 0.000016417
 0.000012392 0.000017370 0.000062170
      73
 0.000000989 0.000000825 0.000001172 0.000056653 0.000045022 0.000014220
 0.000012643 0.000015815 0.000056884
      74
 0.000001272 0.000001001 0.000001616 0.000057165 0.000047467 0.000011200
 0.000013362 0.000013371 0.000048798
      75
 0.000001574 0.000001242 0.000002106 0.000057787 0.000050238 0.000008054
 0.000014517 0.000010390 0.000039343
      76
 0.000001834 0.000002547 0.000001502 0.000058395 0.000052785 0.000005398
 0.000015766 0.000007469 0.000030510
      77
 0.000002005 0.000002851 0.000001707 0.000058841 0.000054576 0.000003655
 0.000016698 0.000005322 0.000024269
      78
 0.000002064 0.000002960 0.000001786 0.000059005 0.000055220 0.000003051
 0.000017040 0.000004531 0.000022021
 Norm of the difference between old and new effective charges:    0.00000000000000000000

 Norm of the difference between old and new force-constants:   0.00368797838689954773

 Broadening   0.0000
       1
-0.000000000-0.000000000 0.000000000 0.000001386 0.000004676-0.000001162
 0.000518087 0.000300542 0.000004326
       2
-0.000000238 0.000000620 0.000000418 0.000006475 0.000003069-0.000001245
 0.000487235 0.000298621 0.000003694
       3
-0.000000475 0.000001380 0.000001347 0.000009824 0.000005009-0.000000966
 0.000395259 0.000302710 0.000002080
       4
-0.000000125 0.000001260 0.000002338 0.000010168 0.000007101 0.000001099
 0.000281961 0.000290546 0.000000266
       5
 0.000000771 0.000000686 0.000003208 0.000007639 0.000006045 0.000008713
 0.000218839 0.000208588-0.000000668
       6
 0.000001771 0.000000266 0.000003714 0.000013432 0.000003552 0.000009493
 0.000000381 0.000150627 0.000131122
       7
 0.000002101 0.000000158 0.000003661 0.000021825-0.000001154 0.000008557
 0.000004273 0.000078000 0.000075285
       8
 0.000000212 0.000001364 0.000003123 0.000029150-0.000006660 0.000004597
 0.000011472 0.000020622 0.000034468
       9
 0.000000272 0.000000465 0.000002396 0.000032260-0.000013308 0.000021963
-0.000002231-0.000009059 0.000001049
      10
 0.000000300 0.000000204 0.000001807 0.000028455-0.000019720 0.000035158
-0.000007870-0.000016699-0.000024492
      11
 0.000000308 0.000000230 0.000001584 0.000022207-0.000022537 0.000044727
-0.000007543-0.000014014-0.000039597
      12
 0.000000432 0.000000409 0.000001610 0.000025479-0.000016595 0.000045607
-0.000003110-0.000011435-0.000037470
      13
 0.000000807 0.000000876 0.000001832 0.000034209-0.000002323 0.000047911
 0.000004938-0.000000745-0.000032286
      14
 0.000001440 0.000001405 0.000002145 0.000045339 0.000050938 0.000011953
 0.000009667-0.000004784-0.000003427
      15
 0.000001880 0.000002099 0.000002250 0.000054666 0.000053923 0.000016697
 0.000010843-0.000003735 0.000019393
      16
 0.000002064 0.000002960 0.000001786 0.000059005 0.000055220 0.000003051
 0.000017040 0.000004531 0.000022021
      17
 0.000001842 0.000002509 0.000001772 0.000055524 0.000052738 0.000018219
 0.000021964-0.000003925 0.000029868
      18
 0.000001432 0.000001900 0.000001707 0.000049007 0.000045784 0.000022773
 0.000025729 0.000030820 0.000011051
      19
 0.000001032 0.000001308 0.000001760 0.000040335 0.000022820 0.000036057
 0.000027898 0.000023082 0.000047751
      20
 0.000000880 0.000000831 0.000002146 0.000030690 0.000020688 0.000025558
 0.000026558 0.000013919 0.000102653
      21
 0.000000917 0.000000494 0.000002864 0.000021175 0.000018187 0.000021482
 0.000016057 0.000016137 0.000166990
      22
 0.000000720 0.000000360 0.000003558 0.000012678 0.000016609 0.000014673
 0.000008772 0.000228731 0.000043061
      23
 0.000000194 0.000000609 0.000003728 0.000005662 0.000015910 0.000008958
 0.000276823 0.000004230 0.000102810
      24
-0.000000373 0.000001258 0.000003124 0.000014698 0.000000588 0.000006098
 0.000305285 0.000193683 0.000002270
      25
-0.000000741 0.000001801 0.000001996 0.000011818 0.000005600-0.000001968
 0.000314889 0.000302867 0.000002192
      26
-0.000000713 0.000001527 0.000000955 0.000008126 0.000005107-0.000002233
 0.000409172 0.000311654 0.000003048
      27
-0.000000285 0.000000553 0.000000278 0.000005516 0.000002999-0.000001536
 0.000488267 0.000304178 0.000003956
      28
-0.000000000-0.000000000 0.000000000 0.000001386 0.000004676-0.000001162
 0.000518087 0.000300542 0.000004326
      29
 0.000000358 0.000000782 0.000000040 0.000001637 0.000004975-0.000001254
 0.000513113 0.000299007 0.000005032
      30
 0.000001210 0.000002534 0.000000639 0.000002322 0.000005864-0.000001589
 0.000499184 0.000294704 0.000007011
      31
 0.000002098 0.000004083 0.000002456 0.000003206 0.000007128-0.000001964
 0.000479080 0.000288486 0.000009871
      32
 0.000002703 0.000004756 0.000005247 0.000003948 0.000008190-0.000001704
 0.000456817 0.000281585 0.000013045
      33
 0.000002989 0.000004695 0.000008169 0.000004315 0.000008563-0.000000573
 0.000436805 0.000275367 0.000015905
      34
 0.000003009 0.000004160 0.000004437 0.000008619 0.000010594 0.000000543
 0.000422971 0.000271065 0.000017883
      35
 0.000000331 0.000000187 0.000007104 0.000012284 0.000011759 0.000000789
 0.000418034 0.000269529 0.000018590
      36
 0.000000209 0.000000290 0.000008098 0.000012231 0.000011528-0.000000229
 0.000390371 0.000258783 0.000016956
      37
 0.000000116 0.000000292 0.000011266 0.000008087 0.000011286-0.000002522
 0.000330277 0.000216247 0.000012741
      38
 0.000000035 0.000000207 0.000007600 0.000007643 0.000008972-0.000004369
 0.000257009 0.000150814 0.000007753
      39
 0.000000022 0.000000116 0.000005322 0.000004293-0.000004195 0.000004913
 0.000180420 0.000004248 0.000083432
      40
 0.000000128 0.000000169 0.000003148 0.000000787-0.000001310 0.000001363
 0.000004052 0.000112375 0.000028896
      41
 0.000000354 0.000000400 0.000001417-0.000002507 0.000004022-0.000000220
 0.000007844 0.000062230-0.000005325
      42
 0.000000654 0.000000293 0.000000602-0.000006277 0.000010804 0.000014898
 0.000000265 0.000033762-0.000019373
      43
 0.000000955-0.000000306 0.000000503-0.000011094 0.000017296 0.000023461
 0.000001274 0.000023998-0.000018764
      44
 0.000001178-0.000000566 0.000000147-0.000015936 0.000020673 0.000031860
 0.000000007 0.000024782-0.000010890
      45
 0.000001260-0.000000634-0.000000057-0.000018099 0.000019065 0.000037944
 0.000025680-0.000006258-0.000000518
      46
 0.000001325-0.000000462 0.000000036-0.000012964 0.000022554 0.000038730
 0.000027339 0.000000306-0.000000606
      47
 0.000001452-0.000000031 0.000000229 0.000031603-0.000000389 0.000040876
 0.000017401 0.000030099 0.000000639
      48
 0.000000438 0.000001474 0.000000355 0.000042739 0.000043503 0.000012705
 0.000018593 0.000006943 0.000047943
      49
 0.000000710 0.000001230 0.000000431 0.000051879 0.000044951 0.000019129
 0.000017794 0.000015041 0.000059399
      50
 0.000000718 0.000000694 0.000000752 0.000056217 0.000042771 0.000017223
 0.000012362 0.000017897 0.000063984
      51
 0.000000882 0.000001167 0.000000683 0.000058757 0.000043440 0.000021259
 0.000014059 0.000025791 0.000064198
      52
 0.000001051 0.000001396 0.000001182 0.000057146 0.000041785 0.000023943
 0.000013476 0.000062508 0.000019634
      53
 0.000001176 0.000001370 0.000001855 0.000050576 0.000023001 0.000037045
 0.000011718 0.000062153 0.000000181
      54
 0.000001125 0.000001365 0.000002081 0.000039959 0.000018552 0.000029520
 0.000010285 0.000067664-0.000026164
      55
 0.000000764 0.000001899 0.000001591 0.000027261 0.000012180 0.000010050
 0.000020666 0.000084294-0.000047382
      56
 0.000000407 0.000000741 0.000002982 0.000006231 0.000014715 0.000010896
 0.000012650 0.000116474-0.000049716
      57
 0.000000148 0.000000120 0.000004488 0.000002837 0.000004392 0.000012058
 0.000007524 0.000165697-0.000023324
      58
 0.000000025 0.000000000 0.000005937 0.000002989-0.000002103 0.000012764
 0.000228765 0.000006365 0.000032803
      59
 0.000000023 0.000000188 0.000006682 0.000006048 0.000012849-0.000004197
 0.000297396 0.000109002 0.000008796
      60
 0.000000088 0.000000354 0.000009876 0.000006619 0.000012608-0.000002863
 0.000359605 0.000187316 0.000013122
      61
 0.000000158 0.000000363 0.000007047 0.000012004 0.000011803-0.000000389
 0.000402767 0.000246913 0.000017034
      62
 0.000000331 0.000000187 0.000007104 0.000012284 0.000011759 0.000000789
 0.000418034 0.000269529 0.000018590
      63
 0.000001260-0.000000634-0.000000057-0.000018099 0.000019065 0.000037944
 0.000025680-0.000006258-0.000000518
      64
 0.000001230-0.000000575 0.000000030-0.000018321 0.000019212 0.000038306
 0.000023273-0.000006351-0.000002033
      65
 0.000001138-0.000000418 0.000000273-0.000018942 0.000019624 0.000039310
 0.000016795-0.000006597-0.000006529
      66
 0.000000978-0.000000214 0.000000624-0.000019841 0.000020224 0.000040723
 0.000008109-0.000006910-0.000013671
      67
 0.000000765-0.000000020 0.000001005 0.000020907-0.000020833 0.000042237
-0.000007197-0.000000654-0.000022435
      68
 0.000000542 0.000000124 0.000001327 0.000021551-0.000021718 0.000043548
-0.000007401-0.000007829-0.000031016
      69
 0.000000372 0.000000205 0.000001523 0.000022027-0.000022323 0.000044422
-0.000007510-0.000012435-0.000037295
      70
 0.000000308 0.000000230 0.000001584 0.000022207-0.000022537 0.000044727
-0.000007543-0.000014014-0.000039597
      71
 0.000000718 0.000000694 0.000000752 0.000056217 0.000042771 0.000017223
 0.000012362 0.000017897 0.000063984
      72
 0.000000790 0.000000725 0.000000863 0.000056327 0.000043359 0.000016417
 0.000012392 0.000017370 0.000062170
      73
 0.000000989 0.000000825 0.000001172 0.000056653 0.000045022 0.000014220
 0.000012643 0.000015815 0.000056884
      74
 0.000001272 0.000001001 0.000001616 0.000057165 0.000047467 0.000011200
 0.000013362 0.000013371 0.000048798
      75
 0.000001574 0.000001242 0.000002106 0.000057787 0.000050238 0.000008054
 0.000014517 0.000010390 0.000039343
      76
 0.000001834 0.000002547 0.000001502 0.000058395 0.000052785 0.000005398
 0.000015766 0.000007469 0.000030510
      77
 0.000002005 0.000002851 0.000001707 0.000058841 0.000054576 0.000003655
 0.000016698 0.000005322 0.000024269
      78
 0.000002064 0.000002960 0.000001786 0.000059005 0.000055220 0.000003051
 0.000017040 0.000004531 0.000022021
 
     MATDYN       :      6.49s CPU      6.62s WALL

 
   This run was terminated on:   3: 7:44  13Mar2026            

=------------------------------------------------------------------------------=
   JOB DONE.
=------------------------------------------------------------------------------=
