
     Program MATDYN v.7.4.1 starts on 17Mar2026 at 22:51:11 

     This program is part of the open-source Quantum ESPRESSO suite
     for quantum simulation of materials; please cite
         "P. Giannozzi et al., J. Phys.:Condens. Matter 21 395502 (2009);
         "P. Giannozzi et al., J. Phys.:Condens. Matter 29 465901 (2017);
         "P. Giannozzi et al., J. Chem. Phys. 152 154105 (2020);
          URL http://www.quantum-espresso.org", 
     in publications or presentations arising from this work. More details at
     http://www.quantum-espresso.org/quote

     Parallel version (MPI & OpenMP), running on       1 processor cores
     Number of MPI processes:                 1
     Threads/MPI process:                     1

     MPI processes distributed on     1 nodes
     228268 MiB available memory on the printing compute node when the environment starts
 
 mass for atomic type   1 not given; uses mass from file ifc.dat                                                                                                                                                                                                                                                         
 mass for atomic type   2 not given; uses mass from file ifc.dat                                                                                                                                                                                                                                                         
 Norm of the difference between old and new effective charges:    0.00000000000000000000

 Norm of the difference between old and new force-constants:   0.00136628689359292056

     Message from routine matdyn:
     Z* not found in file ifc.dat, TO-LO splitting at q=0 will be absent!
     Message from routine matdyn:
     Z* not found in file ifc.dat, TO-LO splitting at q=0 will be absent!
 
  Gamma lines for all modes [Rydberg] 
 
 Norm of the difference between old and new effective charges:    0.00000000000000000000

 Norm of the difference between old and new force-constants:   0.00093588049179941352

 Broadening   0.0000
       1
-0.000000000-0.000000000 0.000000000-0.000000161-0.000000161 0.000001525
-0.000040924-0.000040924-0.000000131
       2
-0.000000407-0.000000255 0.000000097-0.000000555-0.000000071 0.000000394
-0.000029706-0.000036063-0.000001039
       3
-0.000001160-0.000000646 0.000000479-0.000001573 0.000000202-0.000002384
-0.000000096-0.000023255-0.000003102
       4
-0.000001603-0.000000657 0.000001085-0.000002404 0.000000776-0.000004784
 0.000037435-0.000007127-0.000004541
       5
-0.000001443-0.000000325 0.000001547-0.000001902-0.000004187 0.000001619
 0.000070211 0.000006934-0.000003061
       6
-0.000000471 0.000000022 0.000001701 0.000000074 0.000000889 0.000001977
 0.000003249 0.000015329 0.000088218
       7
 0.000000975 0.000000176 0.000001661 0.000010409 0.000002330 0.000000925
 0.000014979 0.000017471 0.000087507
       8
 0.000001635 0.000000136 0.000001577 0.000023117 0.000003375 0.000030940
-0.000001410 0.000015260 0.000070841
       9
 0.000000032 0.000001053 0.000001519 0.000035200 0.000002596 0.000048700
-0.000002989 0.000011607 0.000045552
      10
-0.000000032 0.000000476 0.000001493 0.000039582 0.000000853 0.000066480
 0.000000335 0.000008845 0.000019485
      11
-0.000000049 0.000000379 0.000001486 0.000034439-0.000000058 0.000079666
 0.000011869 0.000007900-0.000000879
      12
 0.000000199 0.000000446 0.000001620 0.000033702 0.000001194 0.000074737
 0.000008229 0.000008825-0.000003417
      13
 0.000000842 0.000000697 0.000002034 0.000032136 0.000062255 0.000002822
 0.000004018 0.000005841-0.000009434
      14
 0.000001149 0.000001634 0.000002525 0.000031123 0.000047850 0.000000640
-0.000001972-0.000015019 0.000002775
      15
 0.000001646 0.000002308 0.000002800 0.000031575 0.000037244-0.000007706
-0.000007986-0.000015660 0.000001343
      16
 0.000001887 0.000002714 0.000002714 0.000032991 0.000032991-0.000018838
-0.000009877-0.000009877 0.000001080
      17
 0.000001675 0.000002390 0.000002857 0.000033096 0.000033586-0.000011902
-0.000007089-0.000013455 0.000001639
      18
 0.000001112 0.000001925 0.000002888 0.000033641 0.000032267-0.000003943
-0.000002135 0.000004511-0.000008194
      19
 0.000000614 0.000001420 0.000002867 0.000031589 0.000028190 0.000002228
 0.000002632 0.000010321 0.000008280
      20
 0.000000655 0.000000955 0.000002827 0.000025214 0.000005494 0.000021430
 0.000005759 0.000017644 0.000032814
      21
 0.000000759 0.000000573 0.000002773 0.000015684 0.000005599 0.000006708
 0.000013080 0.000023656 0.000058302
      22
 0.000000033 0.000000257 0.000002662 0.000006167 0.000003361 0.000005761
 0.000004910 0.000025242 0.000075783
      23
-0.000001058-0.000000060 0.000002402-0.000001012 0.000000347 0.000003802
-0.000001304 0.000020253 0.000077852
      24
-0.000001648-0.000000418 0.000001893-0.000001808-0.000004688 0.000001880
 0.000061889 0.000008552-0.000004485
      25
-0.000001610-0.000000696 0.000001160-0.000002260 0.000000667-0.000004641
 0.000031729-0.000007603-0.000004671
      26
-0.000001112-0.000000633 0.000000463-0.000001459 0.000000145-0.000002156
-0.000003068-0.000024113-0.000002959
      27
-0.000000380-0.000000239 0.000000090-0.000000524-0.000000080 0.000000475
-0.000030532-0.000036394-0.000000976
      28
-0.000000000-0.000000000 0.000000000-0.000000161-0.000000161 0.000001525
-0.000040924-0.000040924-0.000000131
      29
 0.000000068 0.000000068 0.000000422-0.000000074-0.000000074 0.000001629
 0.000006812 0.000006812-0.000000113
      30
 0.000000268 0.000000268 0.000001695 0.000000189 0.000000189 0.000001853
 0.000140563 0.000140563-0.000000062
      31
 0.000000586 0.000000586 0.000003683 0.000000619 0.000000619 0.000002079
 0.000333842 0.000333842 0.000000011
      32
 0.000000975 0.000000975 0.000005989 0.000001172 0.000001172 0.000002301
 0.000548361 0.000548361 0.000000092
      33
 0.000001343 0.000001343 0.000001750 0.000001750 0.000008236 0.000002395
 0.000741640 0.000741640 0.000000165
      34
 0.000001501 0.000001501 0.000002302 0.000002302 0.000010331 0.000001955
 0.000875391 0.000875391 0.000000216
      35
-0.000000012-0.000000012 0.000004080 0.000004080 0.000011569 0.000001315
 0.000923127 0.000923127 0.000000234
      36
-0.000000044 0.000000065 0.000004498 0.000006193 0.000010935 0.000000212
 0.000875060 0.000857720-0.000000182
      37
-0.000000118 0.000000168 0.000005138 0.000009473 0.000011061-0.000002212
 0.000743220 0.000680737-0.000001096
      38
-0.000000175 0.000000121 0.000008995 0.000004843 0.000013219-0.000003932
 0.000561561 0.000442698-0.000001587
      39
-0.000000142-0.000000015 0.000007590 0.000003284-0.000003056 0.000010945
-0.000000391 0.000373260 0.000206918
      40
 0.000000035 0.000000038 0.000005806 0.000001566 0.000001187 0.000003954
 0.000003641 0.000027591 0.000214597
      41
 0.000000362 0.000000444 0.000003919 0.000001179 0.000008248-0.000003890
 0.000010964-0.000066818 0.000104611
      42
 0.000000787 0.000002282 0.000000946 0.000002160 0.000016667 0.000020920
-0.000008027-0.000079323 0.000043331
      43
 0.000001213 0.000001098 0.000001073 0.000002665 0.000024305 0.000031877
-0.000006415-0.000039019 0.000017330
      44
 0.000001526 0.000000409 0.000000760 0.000001453 0.000027841 0.000042424
-0.000000889 0.000011699 0.000008965
      45
 0.000001641 0.000000185 0.000000533 0.000000414 0.000024819 0.000050737
 0.000034019 0.000004565 0.000004854
      46
 0.000001586 0.000000119 0.000000529 0.000002441 0.000026618 0.000049637
 0.000050095 0.000009646-0.000003769
      47
 0.000001414 0.000000054 0.000000488 0.000031425 0.000008789 0.000047116
 0.000077871 0.000021559-0.000007898
      48
 0.000000191 0.000001120 0.000000386 0.000037581 0.000044896 0.000018841
 0.000103270 0.000034570 0.000004388
      49
 0.000000461 0.000000739 0.000000310 0.000042743 0.000044224 0.000028106
 0.000042866 0.000024691 0.000124509
      50
 0.000000589 0.000000416 0.000000416 0.000044629 0.000044629 0.000026420
 0.000045902 0.000045901 0.000128575
      51
 0.000000525 0.000000635 0.000000369 0.000044212 0.000042738 0.000023115
 0.000044263 0.000122766 0.000034021
      52
 0.000000446 0.000000825 0.000000611 0.000041474 0.000037744 0.000012279
 0.000025898 0.000101151 0.000018207
      53
 0.000000527 0.000000853 0.000000983 0.000035614 0.000030384 0.000000973
 0.000002259 0.000059635 0.000002275
      54
 0.000000695 0.000000945 0.000001130 0.000027067-0.000006970 0.000021827
-0.000013216 0.000007029-0.000000560
      55
 0.000000420 0.000001886 0.000000847 0.000017263-0.000009836-0.000015403
 0.000013406-0.000029405 0.000027028
      56
 0.000000131 0.000000337 0.000003427-0.000008000 0.000007980-0.000007706
 0.000006332-0.000014201 0.000100156
      57
-0.000000085 0.000000004 0.000005407-0.000003433 0.000000806 0.000003034
 0.000001413 0.000078437 0.000224866
      58
-0.000000186 0.000000002 0.000007443 0.000001302-0.000003178 0.000010815
-0.000001130 0.000250218 0.000393019
      59
-0.000000181 0.000000136 0.000009132 0.000004263 0.000012790-0.000003791
 0.000581283 0.000473525-0.000001675
      60
-0.000000114 0.000000165 0.000004991 0.000009449 0.000010798-0.000002021
 0.000755310 0.000697244-0.000001036
      61
-0.000000042 0.000000061 0.000004464 0.000006058 0.000010967 0.000000289
 0.000878565 0.000862436-0.000000153
      62
-0.000000012-0.000000012 0.000004080 0.000004080 0.000011569 0.000001315
 0.000923127 0.000923127 0.000000234
      63
 0.000001641 0.000000185 0.000000533 0.000000414 0.000024819 0.000050737
 0.000034019 0.000004565 0.000004854
      64
 0.000001568 0.000000210 0.000000552 0.000000389 0.000025323 0.000052191
 0.000032715 0.000004890 0.000004568
      65
 0.000001356 0.000000271 0.000000628 0.000000322 0.000026715 0.000056255
 0.000029068 0.000005820 0.000003767
      66
 0.000001037 0.000000338 0.000000789 0.000000226 0.000028674 0.000062093
 0.000023812 0.000007218 0.000002613
      67
 0.000000661 0.000000383 0.000001031 0.000000121 0.000030785 0.000068529
 0.000017999 0.000008843 0.000001338
      68
 0.000000304 0.000000394 0.000001279 0.000032656 0.000000028 0.000074289
 0.000012782 0.000010374 0.000000193
      69
 0.000000046 0.000000385 0.000001439 0.000033962-0.000000035 0.000078255
 0.000011471 0.000009182-0.000000598
      70
-0.000000049 0.000000379 0.000001486 0.000034439-0.000000058 0.000079666
 0.000011869 0.000007900-0.000000879
      71
 0.000000589 0.000000416 0.000000416 0.000044629 0.000044629 0.000026420
 0.000045902 0.000045901 0.000128575
      72
 0.000000621 0.000000593 0.000000593 0.000044036 0.000044036 0.000024177
 0.000043086 0.000043086 0.000122300
      73
 0.000000740 0.000001052 0.000001052 0.000042382 0.000042382 0.000017891
 0.000035229 0.000035229 0.000104688
      74
 0.000000969 0.000001622 0.000001622 0.000040017 0.000040017 0.000008813
 0.000023956 0.000023955 0.000079169
      75
 0.000001279 0.000002129 0.000002129 0.000037426 0.000037426-0.000001258
 0.000011549 0.000011548 0.000050777
      76
 0.000001587 0.000002477 0.000002477 0.000035125 0.000035125-0.000010327
 0.000000460 0.000000460 0.000025157
      77
 0.000001807 0.000002660 0.000002660 0.000033550 0.000033550-0.000016600
-0.000007165-0.000007165 0.000007414
      78
 0.000001887 0.000002714 0.000002714 0.000032991 0.000032991-0.000018838
-0.000009877-0.000009877 0.000001080
 Norm of the difference between old and new effective charges:    0.00000000000000000000

 Norm of the difference between old and new force-constants:   0.00093588049179941352

 Broadening   0.0000
       1
-0.000000000-0.000000000 0.000000000-0.000000161-0.000000161 0.000001525
-0.000040924-0.000040924-0.000000131
       2
-0.000000407-0.000000255 0.000000097-0.000000555-0.000000071 0.000000394
-0.000029706-0.000036063-0.000001039
       3
-0.000001160-0.000000646 0.000000479-0.000001573 0.000000202-0.000002384
-0.000000096-0.000023255-0.000003102
       4
-0.000001603-0.000000657 0.000001085-0.000002404 0.000000776-0.000004784
 0.000037435-0.000007127-0.000004541
       5
-0.000001443-0.000000325 0.000001547-0.000001902-0.000004187 0.000001619
 0.000070211 0.000006934-0.000003061
       6
-0.000000471 0.000000022 0.000001701 0.000000074 0.000000889 0.000001977
 0.000003249 0.000015329 0.000088218
       7
 0.000000975 0.000000176 0.000001661 0.000010409 0.000002330 0.000000925
 0.000014979 0.000017471 0.000087507
       8
 0.000001635 0.000000136 0.000001577 0.000023117 0.000003375 0.000030940
-0.000001410 0.000015260 0.000070841
       9
 0.000000032 0.000001053 0.000001519 0.000035200 0.000002596 0.000048700
-0.000002989 0.000011607 0.000045552
      10
-0.000000032 0.000000476 0.000001493 0.000039582 0.000000853 0.000066480
 0.000000335 0.000008845 0.000019485
      11
-0.000000049 0.000000379 0.000001486 0.000034439-0.000000058 0.000079666
 0.000011869 0.000007900-0.000000879
      12
 0.000000199 0.000000446 0.000001620 0.000033702 0.000001194 0.000074737
 0.000008229 0.000008825-0.000003417
      13
 0.000000842 0.000000697 0.000002034 0.000032136 0.000062255 0.000002822
 0.000004018 0.000005841-0.000009434
      14
 0.000001149 0.000001634 0.000002525 0.000031123 0.000047850 0.000000640
-0.000001972-0.000015019 0.000002775
      15
 0.000001646 0.000002308 0.000002800 0.000031575 0.000037244-0.000007706
-0.000007986-0.000015660 0.000001343
      16
 0.000001887 0.000002714 0.000002714 0.000032991 0.000032991-0.000018838
-0.000009877-0.000009877 0.000001080
      17
 0.000001675 0.000002390 0.000002857 0.000033096 0.000033586-0.000011902
-0.000007089-0.000013455 0.000001639
      18
 0.000001112 0.000001925 0.000002888 0.000033641 0.000032267-0.000003943
-0.000002135 0.000004511-0.000008194
      19
 0.000000614 0.000001420 0.000002867 0.000031589 0.000028190 0.000002228
 0.000002632 0.000010321 0.000008280
      20
 0.000000655 0.000000955 0.000002827 0.000025214 0.000005494 0.000021430
 0.000005759 0.000017644 0.000032814
      21
 0.000000759 0.000000573 0.000002773 0.000015684 0.000005599 0.000006708
 0.000013080 0.000023656 0.000058302
      22
 0.000000033 0.000000257 0.000002662 0.000006167 0.000003361 0.000005761
 0.000004910 0.000025242 0.000075783
      23
-0.000001058-0.000000060 0.000002402-0.000001012 0.000000347 0.000003802
-0.000001304 0.000020253 0.000077852
      24
-0.000001648-0.000000418 0.000001893-0.000001808-0.000004688 0.000001880
 0.000061889 0.000008552-0.000004485
      25
-0.000001610-0.000000696 0.000001160-0.000002260 0.000000667-0.000004641
 0.000031729-0.000007603-0.000004671
      26
-0.000001112-0.000000633 0.000000463-0.000001459 0.000000145-0.000002156
-0.000003068-0.000024113-0.000002959
      27
-0.000000380-0.000000239 0.000000090-0.000000524-0.000000080 0.000000475
-0.000030532-0.000036394-0.000000976
      28
-0.000000000-0.000000000 0.000000000-0.000000161-0.000000161 0.000001525
-0.000040924-0.000040924-0.000000131
      29
 0.000000068 0.000000068 0.000000422-0.000000074-0.000000074 0.000001629
 0.000006812 0.000006812-0.000000113
      30
 0.000000268 0.000000268 0.000001695 0.000000189 0.000000189 0.000001853
 0.000140563 0.000140563-0.000000062
      31
 0.000000586 0.000000586 0.000003683 0.000000619 0.000000619 0.000002079
 0.000333842 0.000333842 0.000000011
      32
 0.000000975 0.000000975 0.000005989 0.000001172 0.000001172 0.000002301
 0.000548361 0.000548361 0.000000092
      33
 0.000001343 0.000001343 0.000001750 0.000001750 0.000008236 0.000002395
 0.000741640 0.000741640 0.000000165
      34
 0.000001501 0.000001501 0.000002302 0.000002302 0.000010331 0.000001955
 0.000875391 0.000875391 0.000000216
      35
-0.000000012-0.000000012 0.000004080 0.000004080 0.000011569 0.000001315
 0.000923127 0.000923127 0.000000234
      36
-0.000000044 0.000000065 0.000004498 0.000006193 0.000010935 0.000000212
 0.000875060 0.000857720-0.000000182
      37
-0.000000118 0.000000168 0.000005138 0.000009473 0.000011061-0.000002212
 0.000743220 0.000680737-0.000001096
      38
-0.000000175 0.000000121 0.000008995 0.000004843 0.000013219-0.000003932
 0.000561561 0.000442698-0.000001587
      39
-0.000000142-0.000000015 0.000007590 0.000003284-0.000003056 0.000010945
-0.000000391 0.000373260 0.000206918
      40
 0.000000035 0.000000038 0.000005806 0.000001566 0.000001187 0.000003954
 0.000003641 0.000027591 0.000214597
      41
 0.000000362 0.000000444 0.000003919 0.000001179 0.000008248-0.000003890
 0.000010964-0.000066818 0.000104611
      42
 0.000000787 0.000002282 0.000000946 0.000002160 0.000016667 0.000020920
-0.000008027-0.000079323 0.000043331
      43
 0.000001213 0.000001098 0.000001073 0.000002665 0.000024305 0.000031877
-0.000006415-0.000039019 0.000017330
      44
 0.000001526 0.000000409 0.000000760 0.000001453 0.000027841 0.000042424
-0.000000889 0.000011699 0.000008965
      45
 0.000001641 0.000000185 0.000000533 0.000000414 0.000024819 0.000050737
 0.000034019 0.000004565 0.000004854
      46
 0.000001586 0.000000119 0.000000529 0.000002441 0.000026618 0.000049637
 0.000050095 0.000009646-0.000003769
      47
 0.000001414 0.000000054 0.000000488 0.000031425 0.000008789 0.000047116
 0.000077871 0.000021559-0.000007898
      48
 0.000000191 0.000001120 0.000000386 0.000037581 0.000044896 0.000018841
 0.000103270 0.000034570 0.000004388
      49
 0.000000461 0.000000739 0.000000310 0.000042743 0.000044224 0.000028106
 0.000042866 0.000024691 0.000124509
      50
 0.000000589 0.000000416 0.000000416 0.000044629 0.000044629 0.000026420
 0.000045902 0.000045901 0.000128575
      51
 0.000000525 0.000000635 0.000000369 0.000044212 0.000042738 0.000023115
 0.000044263 0.000122766 0.000034021
      52
 0.000000446 0.000000825 0.000000611 0.000041474 0.000037744 0.000012279
 0.000025898 0.000101151 0.000018207
      53
 0.000000527 0.000000853 0.000000983 0.000035614 0.000030384 0.000000973
 0.000002259 0.000059635 0.000002275
      54
 0.000000695 0.000000945 0.000001130 0.000027067-0.000006970 0.000021827
-0.000013216 0.000007029-0.000000560
      55
 0.000000420 0.000001886 0.000000847 0.000017263-0.000009836-0.000015403
 0.000013406-0.000029405 0.000027028
      56
 0.000000131 0.000000337 0.000003427-0.000008000 0.000007980-0.000007706
 0.000006332-0.000014201 0.000100156
      57
-0.000000085 0.000000004 0.000005407-0.000003433 0.000000806 0.000003034
 0.000001413 0.000078437 0.000224866
      58
-0.000000186 0.000000002 0.000007443 0.000001302-0.000003178 0.000010815
-0.000001130 0.000250218 0.000393019
      59
-0.000000181 0.000000136 0.000009132 0.000004263 0.000012790-0.000003791
 0.000581283 0.000473525-0.000001675
      60
-0.000000114 0.000000165 0.000004991 0.000009449 0.000010798-0.000002021
 0.000755310 0.000697244-0.000001036
      61
-0.000000042 0.000000061 0.000004464 0.000006058 0.000010967 0.000000289
 0.000878565 0.000862436-0.000000153
      62
-0.000000012-0.000000012 0.000004080 0.000004080 0.000011569 0.000001315
 0.000923127 0.000923127 0.000000234
      63
 0.000001641 0.000000185 0.000000533 0.000000414 0.000024819 0.000050737
 0.000034019 0.000004565 0.000004854
      64
 0.000001568 0.000000210 0.000000552 0.000000389 0.000025323 0.000052191
 0.000032715 0.000004890 0.000004568
      65
 0.000001356 0.000000271 0.000000628 0.000000322 0.000026715 0.000056255
 0.000029068 0.000005820 0.000003767
      66
 0.000001037 0.000000338 0.000000789 0.000000226 0.000028674 0.000062093
 0.000023812 0.000007218 0.000002613
      67
 0.000000661 0.000000383 0.000001031 0.000000121 0.000030785 0.000068529
 0.000017999 0.000008843 0.000001338
      68
 0.000000304 0.000000394 0.000001279 0.000032656 0.000000028 0.000074289
 0.000012782 0.000010374 0.000000193
      69
 0.000000046 0.000000385 0.000001439 0.000033962-0.000000035 0.000078255
 0.000011471 0.000009182-0.000000598
      70
-0.000000049 0.000000379 0.000001486 0.000034439-0.000000058 0.000079666
 0.000011869 0.000007900-0.000000879
      71
 0.000000589 0.000000416 0.000000416 0.000044629 0.000044629 0.000026420
 0.000045902 0.000045901 0.000128575
      72
 0.000000621 0.000000593 0.000000593 0.000044036 0.000044036 0.000024177
 0.000043086 0.000043086 0.000122300
      73
 0.000000740 0.000001052 0.000001052 0.000042382 0.000042382 0.000017891
 0.000035229 0.000035229 0.000104688
      74
 0.000000969 0.000001622 0.000001622 0.000040017 0.000040017 0.000008813
 0.000023956 0.000023955 0.000079169
      75
 0.000001279 0.000002129 0.000002129 0.000037426 0.000037426-0.000001258
 0.000011549 0.000011548 0.000050777
      76
 0.000001587 0.000002477 0.000002477 0.000035125 0.000035125-0.000010327
 0.000000460 0.000000460 0.000025157
      77
 0.000001807 0.000002660 0.000002660 0.000033550 0.000033550-0.000016600
-0.000007165-0.000007165 0.000007414
      78
 0.000001887 0.000002714 0.000002714 0.000032991 0.000032991-0.000018838
-0.000009877-0.000009877 0.000001080
 Norm of the difference between old and new effective charges:    0.00000000000000000000

 Norm of the difference between old and new force-constants:   0.00093588049179941352

 Broadening   0.0000
       1
-0.000000000-0.000000000 0.000000000-0.000000161-0.000000161 0.000001525
-0.000040924-0.000040924-0.000000131
       2
-0.000000407-0.000000255 0.000000097-0.000000555-0.000000071 0.000000394
-0.000029706-0.000036063-0.000001039
       3
-0.000001160-0.000000646 0.000000479-0.000001573 0.000000202-0.000002384
-0.000000096-0.000023255-0.000003102
       4
-0.000001603-0.000000657 0.000001085-0.000002404 0.000000776-0.000004784
 0.000037435-0.000007127-0.000004541
       5
-0.000001443-0.000000325 0.000001547-0.000001902-0.000004187 0.000001619
 0.000070211 0.000006934-0.000003061
       6
-0.000000471 0.000000022 0.000001701 0.000000074 0.000000889 0.000001977
 0.000003249 0.000015329 0.000088218
       7
 0.000000975 0.000000176 0.000001661 0.000010409 0.000002330 0.000000925
 0.000014979 0.000017471 0.000087507
       8
 0.000001635 0.000000136 0.000001577 0.000023117 0.000003375 0.000030940
-0.000001410 0.000015260 0.000070841
       9
 0.000000032 0.000001053 0.000001519 0.000035200 0.000002596 0.000048700
-0.000002989 0.000011607 0.000045552
      10
-0.000000032 0.000000476 0.000001493 0.000039582 0.000000853 0.000066480
 0.000000335 0.000008845 0.000019485
      11
-0.000000049 0.000000379 0.000001486 0.000034439-0.000000058 0.000079666
 0.000011869 0.000007900-0.000000879
      12
 0.000000199 0.000000446 0.000001620 0.000033702 0.000001194 0.000074737
 0.000008229 0.000008825-0.000003417
      13
 0.000000842 0.000000697 0.000002034 0.000032136 0.000062255 0.000002822
 0.000004018 0.000005841-0.000009434
      14
 0.000001149 0.000001634 0.000002525 0.000031123 0.000047850 0.000000640
-0.000001972-0.000015019 0.000002775
      15
 0.000001646 0.000002308 0.000002800 0.000031575 0.000037244-0.000007706
-0.000007986-0.000015660 0.000001343
      16
 0.000001887 0.000002714 0.000002714 0.000032991 0.000032991-0.000018838
-0.000009877-0.000009877 0.000001080
      17
 0.000001675 0.000002390 0.000002857 0.000033096 0.000033586-0.000011902
-0.000007089-0.000013455 0.000001639
      18
 0.000001112 0.000001925 0.000002888 0.000033641 0.000032267-0.000003943
-0.000002135 0.000004511-0.000008194
      19
 0.000000614 0.000001420 0.000002867 0.000031589 0.000028190 0.000002228
 0.000002632 0.000010321 0.000008280
      20
 0.000000655 0.000000955 0.000002827 0.000025214 0.000005494 0.000021430
 0.000005759 0.000017644 0.000032814
      21
 0.000000759 0.000000573 0.000002773 0.000015684 0.000005599 0.000006708
 0.000013080 0.000023656 0.000058302
      22
 0.000000033 0.000000257 0.000002662 0.000006167 0.000003361 0.000005761
 0.000004910 0.000025242 0.000075783
      23
-0.000001058-0.000000060 0.000002402-0.000001012 0.000000347 0.000003802
-0.000001304 0.000020253 0.000077852
      24
-0.000001648-0.000000418 0.000001893-0.000001808-0.000004688 0.000001880
 0.000061889 0.000008552-0.000004485
      25
-0.000001610-0.000000696 0.000001160-0.000002260 0.000000667-0.000004641
 0.000031729-0.000007603-0.000004671
      26
-0.000001112-0.000000633 0.000000463-0.000001459 0.000000145-0.000002156
-0.000003068-0.000024113-0.000002959
      27
-0.000000380-0.000000239 0.000000090-0.000000524-0.000000080 0.000000475
-0.000030532-0.000036394-0.000000976
      28
-0.000000000-0.000000000 0.000000000-0.000000161-0.000000161 0.000001525
-0.000040924-0.000040924-0.000000131
      29
 0.000000068 0.000000068 0.000000422-0.000000074-0.000000074 0.000001629
 0.000006812 0.000006812-0.000000113
      30
 0.000000268 0.000000268 0.000001695 0.000000189 0.000000189 0.000001853
 0.000140563 0.000140563-0.000000062
      31
 0.000000586 0.000000586 0.000003683 0.000000619 0.000000619 0.000002079
 0.000333842 0.000333842 0.000000011
      32
 0.000000975 0.000000975 0.000005989 0.000001172 0.000001172 0.000002301
 0.000548361 0.000548361 0.000000092
      33
 0.000001343 0.000001343 0.000001750 0.000001750 0.000008236 0.000002395
 0.000741640 0.000741640 0.000000165
      34
 0.000001501 0.000001501 0.000002302 0.000002302 0.000010331 0.000001955
 0.000875391 0.000875391 0.000000216
      35
-0.000000012-0.000000012 0.000004080 0.000004080 0.000011569 0.000001315
 0.000923127 0.000923127 0.000000234
      36
-0.000000044 0.000000065 0.000004498 0.000006193 0.000010935 0.000000212
 0.000875060 0.000857720-0.000000182
      37
-0.000000118 0.000000168 0.000005138 0.000009473 0.000011061-0.000002212
 0.000743220 0.000680737-0.000001096
      38
-0.000000175 0.000000121 0.000008995 0.000004843 0.000013219-0.000003932
 0.000561561 0.000442698-0.000001587
      39
-0.000000142-0.000000015 0.000007590 0.000003284-0.000003056 0.000010945
-0.000000391 0.000373260 0.000206918
      40
 0.000000035 0.000000038 0.000005806 0.000001566 0.000001187 0.000003954
 0.000003641 0.000027591 0.000214597
      41
 0.000000362 0.000000444 0.000003919 0.000001179 0.000008248-0.000003890
 0.000010964-0.000066818 0.000104611
      42
 0.000000787 0.000002282 0.000000946 0.000002160 0.000016667 0.000020920
-0.000008027-0.000079323 0.000043331
      43
 0.000001213 0.000001098 0.000001073 0.000002665 0.000024305 0.000031877
-0.000006415-0.000039019 0.000017330
      44
 0.000001526 0.000000409 0.000000760 0.000001453 0.000027841 0.000042424
-0.000000889 0.000011699 0.000008965
      45
 0.000001641 0.000000185 0.000000533 0.000000414 0.000024819 0.000050737
 0.000034019 0.000004565 0.000004854
      46
 0.000001586 0.000000119 0.000000529 0.000002441 0.000026618 0.000049637
 0.000050095 0.000009646-0.000003769
      47
 0.000001414 0.000000054 0.000000488 0.000031425 0.000008789 0.000047116
 0.000077871 0.000021559-0.000007898
      48
 0.000000191 0.000001120 0.000000386 0.000037581 0.000044896 0.000018841
 0.000103270 0.000034570 0.000004388
      49
 0.000000461 0.000000739 0.000000310 0.000042743 0.000044224 0.000028106
 0.000042866 0.000024691 0.000124509
      50
 0.000000589 0.000000416 0.000000416 0.000044629 0.000044629 0.000026420
 0.000045902 0.000045901 0.000128575
      51
 0.000000525 0.000000635 0.000000369 0.000044212 0.000042738 0.000023115
 0.000044263 0.000122766 0.000034021
      52
 0.000000446 0.000000825 0.000000611 0.000041474 0.000037744 0.000012279
 0.000025898 0.000101151 0.000018207
      53
 0.000000527 0.000000853 0.000000983 0.000035614 0.000030384 0.000000973
 0.000002259 0.000059635 0.000002275
      54
 0.000000695 0.000000945 0.000001130 0.000027067-0.000006970 0.000021827
-0.000013216 0.000007029-0.000000560
      55
 0.000000420 0.000001886 0.000000847 0.000017263-0.000009836-0.000015403
 0.000013406-0.000029405 0.000027028
      56
 0.000000131 0.000000337 0.000003427-0.000008000 0.000007980-0.000007706
 0.000006332-0.000014201 0.000100156
      57
-0.000000085 0.000000004 0.000005407-0.000003433 0.000000806 0.000003034
 0.000001413 0.000078437 0.000224866
      58
-0.000000186 0.000000002 0.000007443 0.000001302-0.000003178 0.000010815
-0.000001130 0.000250218 0.000393019
      59
-0.000000181 0.000000136 0.000009132 0.000004263 0.000012790-0.000003791
 0.000581283 0.000473525-0.000001675
      60
-0.000000114 0.000000165 0.000004991 0.000009449 0.000010798-0.000002021
 0.000755310 0.000697244-0.000001036
      61
-0.000000042 0.000000061 0.000004464 0.000006058 0.000010967 0.000000289
 0.000878565 0.000862436-0.000000153
      62
-0.000000012-0.000000012 0.000004080 0.000004080 0.000011569 0.000001315
 0.000923127 0.000923127 0.000000234
      63
 0.000001641 0.000000185 0.000000533 0.000000414 0.000024819 0.000050737
 0.000034019 0.000004565 0.000004854
      64
 0.000001568 0.000000210 0.000000552 0.000000389 0.000025323 0.000052191
 0.000032715 0.000004890 0.000004568
      65
 0.000001356 0.000000271 0.000000628 0.000000322 0.000026715 0.000056255
 0.000029068 0.000005820 0.000003767
      66
 0.000001037 0.000000338 0.000000789 0.000000226 0.000028674 0.000062093
 0.000023812 0.000007218 0.000002613
      67
 0.000000661 0.000000383 0.000001031 0.000000121 0.000030785 0.000068529
 0.000017999 0.000008843 0.000001338
      68
 0.000000304 0.000000394 0.000001279 0.000032656 0.000000028 0.000074289
 0.000012782 0.000010374 0.000000193
      69
 0.000000046 0.000000385 0.000001439 0.000033962-0.000000035 0.000078255
 0.000011471 0.000009182-0.000000598
      70
-0.000000049 0.000000379 0.000001486 0.000034439-0.000000058 0.000079666
 0.000011869 0.000007900-0.000000879
      71
 0.000000589 0.000000416 0.000000416 0.000044629 0.000044629 0.000026420
 0.000045902 0.000045901 0.000128575
      72
 0.000000621 0.000000593 0.000000593 0.000044036 0.000044036 0.000024177
 0.000043086 0.000043086 0.000122300
      73
 0.000000740 0.000001052 0.000001052 0.000042382 0.000042382 0.000017891
 0.000035229 0.000035229 0.000104688
      74
 0.000000969 0.000001622 0.000001622 0.000040017 0.000040017 0.000008813
 0.000023956 0.000023955 0.000079169
      75
 0.000001279 0.000002129 0.000002129 0.000037426 0.000037426-0.000001258
 0.000011549 0.000011548 0.000050777
      76
 0.000001587 0.000002477 0.000002477 0.000035125 0.000035125-0.000010327
 0.000000460 0.000000460 0.000025157
      77
 0.000001807 0.000002660 0.000002660 0.000033550 0.000033550-0.000016600
-0.000007165-0.000007165 0.000007414
      78
 0.000001887 0.000002714 0.000002714 0.000032991 0.000032991-0.000018838
-0.000009877-0.000009877 0.000001080
 Norm of the difference between old and new effective charges:    0.00000000000000000000

 Norm of the difference between old and new force-constants:   0.00093588049179941352

 Broadening   0.0000
       1
-0.000000000-0.000000000 0.000000000-0.000000161-0.000000161 0.000001525
-0.000040924-0.000040924-0.000000131
       2
-0.000000407-0.000000255 0.000000097-0.000000555-0.000000071 0.000000394
-0.000029706-0.000036063-0.000001039
       3
-0.000001160-0.000000646 0.000000479-0.000001573 0.000000202-0.000002384
-0.000000096-0.000023255-0.000003102
       4
-0.000001603-0.000000657 0.000001085-0.000002404 0.000000776-0.000004784
 0.000037435-0.000007127-0.000004541
       5
-0.000001443-0.000000325 0.000001547-0.000001902-0.000004187 0.000001619
 0.000070211 0.000006934-0.000003061
       6
-0.000000471 0.000000022 0.000001701 0.000000074 0.000000889 0.000001977
 0.000003249 0.000015329 0.000088218
       7
 0.000000975 0.000000176 0.000001661 0.000010409 0.000002330 0.000000925
 0.000014979 0.000017471 0.000087507
       8
 0.000001635 0.000000136 0.000001577 0.000023117 0.000003375 0.000030940
-0.000001410 0.000015260 0.000070841
       9
 0.000000032 0.000001053 0.000001519 0.000035200 0.000002596 0.000048700
-0.000002989 0.000011607 0.000045552
      10
-0.000000032 0.000000476 0.000001493 0.000039582 0.000000853 0.000066480
 0.000000335 0.000008845 0.000019485
      11
-0.000000049 0.000000379 0.000001486 0.000034439-0.000000058 0.000079666
 0.000011869 0.000007900-0.000000879
      12
 0.000000199 0.000000446 0.000001620 0.000033702 0.000001194 0.000074737
 0.000008229 0.000008825-0.000003417
      13
 0.000000842 0.000000697 0.000002034 0.000032136 0.000062255 0.000002822
 0.000004018 0.000005841-0.000009434
      14
 0.000001149 0.000001634 0.000002525 0.000031123 0.000047850 0.000000640
-0.000001972-0.000015019 0.000002775
      15
 0.000001646 0.000002308 0.000002800 0.000031575 0.000037244-0.000007706
-0.000007986-0.000015660 0.000001343
      16
 0.000001887 0.000002714 0.000002714 0.000032991 0.000032991-0.000018838
-0.000009877-0.000009877 0.000001080
      17
 0.000001675 0.000002390 0.000002857 0.000033096 0.000033586-0.000011902
-0.000007089-0.000013455 0.000001639
      18
 0.000001112 0.000001925 0.000002888 0.000033641 0.000032267-0.000003943
-0.000002135 0.000004511-0.000008194
      19
 0.000000614 0.000001420 0.000002867 0.000031589 0.000028190 0.000002228
 0.000002632 0.000010321 0.000008280
      20
 0.000000655 0.000000955 0.000002827 0.000025214 0.000005494 0.000021430
 0.000005759 0.000017644 0.000032814
      21
 0.000000759 0.000000573 0.000002773 0.000015684 0.000005599 0.000006708
 0.000013080 0.000023656 0.000058302
      22
 0.000000033 0.000000257 0.000002662 0.000006167 0.000003361 0.000005761
 0.000004910 0.000025242 0.000075783
      23
-0.000001058-0.000000060 0.000002402-0.000001012 0.000000347 0.000003802
-0.000001304 0.000020253 0.000077852
      24
-0.000001648-0.000000418 0.000001893-0.000001808-0.000004688 0.000001880
 0.000061889 0.000008552-0.000004485
      25
-0.000001610-0.000000696 0.000001160-0.000002260 0.000000667-0.000004641
 0.000031729-0.000007603-0.000004671
      26
-0.000001112-0.000000633 0.000000463-0.000001459 0.000000145-0.000002156
-0.000003068-0.000024113-0.000002959
      27
-0.000000380-0.000000239 0.000000090-0.000000524-0.000000080 0.000000475
-0.000030532-0.000036394-0.000000976
      28
-0.000000000-0.000000000 0.000000000-0.000000161-0.000000161 0.000001525
-0.000040924-0.000040924-0.000000131
      29
 0.000000068 0.000000068 0.000000422-0.000000074-0.000000074 0.000001629
 0.000006812 0.000006812-0.000000113
      30
 0.000000268 0.000000268 0.000001695 0.000000189 0.000000189 0.000001853
 0.000140563 0.000140563-0.000000062
      31
 0.000000586 0.000000586 0.000003683 0.000000619 0.000000619 0.000002079
 0.000333842 0.000333842 0.000000011
      32
 0.000000975 0.000000975 0.000005989 0.000001172 0.000001172 0.000002301
 0.000548361 0.000548361 0.000000092
      33
 0.000001343 0.000001343 0.000001750 0.000001750 0.000008236 0.000002395
 0.000741640 0.000741640 0.000000165
      34
 0.000001501 0.000001501 0.000002302 0.000002302 0.000010331 0.000001955
 0.000875391 0.000875391 0.000000216
      35
-0.000000012-0.000000012 0.000004080 0.000004080 0.000011569 0.000001315
 0.000923127 0.000923127 0.000000234
      36
-0.000000044 0.000000065 0.000004498 0.000006193 0.000010935 0.000000212
 0.000875060 0.000857720-0.000000182
      37
-0.000000118 0.000000168 0.000005138 0.000009473 0.000011061-0.000002212
 0.000743220 0.000680737-0.000001096
      38
-0.000000175 0.000000121 0.000008995 0.000004843 0.000013219-0.000003932
 0.000561561 0.000442698-0.000001587
      39
-0.000000142-0.000000015 0.000007590 0.000003284-0.000003056 0.000010945
-0.000000391 0.000373260 0.000206918
      40
 0.000000035 0.000000038 0.000005806 0.000001566 0.000001187 0.000003954
 0.000003641 0.000027591 0.000214597
      41
 0.000000362 0.000000444 0.000003919 0.000001179 0.000008248-0.000003890
 0.000010964-0.000066818 0.000104611
      42
 0.000000787 0.000002282 0.000000946 0.000002160 0.000016667 0.000020920
-0.000008027-0.000079323 0.000043331
      43
 0.000001213 0.000001098 0.000001073 0.000002665 0.000024305 0.000031877
-0.000006415-0.000039019 0.000017330
      44
 0.000001526 0.000000409 0.000000760 0.000001453 0.000027841 0.000042424
-0.000000889 0.000011699 0.000008965
      45
 0.000001641 0.000000185 0.000000533 0.000000414 0.000024819 0.000050737
 0.000034019 0.000004565 0.000004854
      46
 0.000001586 0.000000119 0.000000529 0.000002441 0.000026618 0.000049637
 0.000050095 0.000009646-0.000003769
      47
 0.000001414 0.000000054 0.000000488 0.000031425 0.000008789 0.000047116
 0.000077871 0.000021559-0.000007898
      48
 0.000000191 0.000001120 0.000000386 0.000037581 0.000044896 0.000018841
 0.000103270 0.000034570 0.000004388
      49
 0.000000461 0.000000739 0.000000310 0.000042743 0.000044224 0.000028106
 0.000042866 0.000024691 0.000124509
      50
 0.000000589 0.000000416 0.000000416 0.000044629 0.000044629 0.000026420
 0.000045902 0.000045901 0.000128575
      51
 0.000000525 0.000000635 0.000000369 0.000044212 0.000042738 0.000023115
 0.000044263 0.000122766 0.000034021
      52
 0.000000446 0.000000825 0.000000611 0.000041474 0.000037744 0.000012279
 0.000025898 0.000101151 0.000018207
      53
 0.000000527 0.000000853 0.000000983 0.000035614 0.000030384 0.000000973
 0.000002259 0.000059635 0.000002275
      54
 0.000000695 0.000000945 0.000001130 0.000027067-0.000006970 0.000021827
-0.000013216 0.000007029-0.000000560
      55
 0.000000420 0.000001886 0.000000847 0.000017263-0.000009836-0.000015403
 0.000013406-0.000029405 0.000027028
      56
 0.000000131 0.000000337 0.000003427-0.000008000 0.000007980-0.000007706
 0.000006332-0.000014201 0.000100156
      57
-0.000000085 0.000000004 0.000005407-0.000003433 0.000000806 0.000003034
 0.000001413 0.000078437 0.000224866
      58
-0.000000186 0.000000002 0.000007443 0.000001302-0.000003178 0.000010815
-0.000001130 0.000250218 0.000393019
      59
-0.000000181 0.000000136 0.000009132 0.000004263 0.000012790-0.000003791
 0.000581283 0.000473525-0.000001675
      60
-0.000000114 0.000000165 0.000004991 0.000009449 0.000010798-0.000002021
 0.000755310 0.000697244-0.000001036
      61
-0.000000042 0.000000061 0.000004464 0.000006058 0.000010967 0.000000289
 0.000878565 0.000862436-0.000000153
      62
-0.000000012-0.000000012 0.000004080 0.000004080 0.000011569 0.000001315
 0.000923127 0.000923127 0.000000234
      63
 0.000001641 0.000000185 0.000000533 0.000000414 0.000024819 0.000050737
 0.000034019 0.000004565 0.000004854
      64
 0.000001568 0.000000210 0.000000552 0.000000389 0.000025323 0.000052191
 0.000032715 0.000004890 0.000004568
      65
 0.000001356 0.000000271 0.000000628 0.000000322 0.000026715 0.000056255
 0.000029068 0.000005820 0.000003767
      66
 0.000001037 0.000000338 0.000000789 0.000000226 0.000028674 0.000062093
 0.000023812 0.000007218 0.000002613
      67
 0.000000661 0.000000383 0.000001031 0.000000121 0.000030785 0.000068529
 0.000017999 0.000008843 0.000001338
      68
 0.000000304 0.000000394 0.000001279 0.000032656 0.000000028 0.000074289
 0.000012782 0.000010374 0.000000193
      69
 0.000000046 0.000000385 0.000001439 0.000033962-0.000000035 0.000078255
 0.000011471 0.000009182-0.000000598
      70
-0.000000049 0.000000379 0.000001486 0.000034439-0.000000058 0.000079666
 0.000011869 0.000007900-0.000000879
      71
 0.000000589 0.000000416 0.000000416 0.000044629 0.000044629 0.000026420
 0.000045902 0.000045901 0.000128575
      72
 0.000000621 0.000000593 0.000000593 0.000044036 0.000044036 0.000024177
 0.000043086 0.000043086 0.000122300
      73
 0.000000740 0.000001052 0.000001052 0.000042382 0.000042382 0.000017891
 0.000035229 0.000035229 0.000104688
      74
 0.000000969 0.000001622 0.000001622 0.000040017 0.000040017 0.000008813
 0.000023956 0.000023955 0.000079169
      75
 0.000001279 0.000002129 0.000002129 0.000037426 0.000037426-0.000001258
 0.000011549 0.000011548 0.000050777
      76
 0.000001587 0.000002477 0.000002477 0.000035125 0.000035125-0.000010327
 0.000000460 0.000000460 0.000025157
      77
 0.000001807 0.000002660 0.000002660 0.000033550 0.000033550-0.000016600
-0.000007165-0.000007165 0.000007414
      78
 0.000001887 0.000002714 0.000002714 0.000032991 0.000032991-0.000018838
-0.000009877-0.000009877 0.000001080
 Norm of the difference between old and new effective charges:    0.00000000000000000000

 Norm of the difference between old and new force-constants:   0.00093588049179941352

 Broadening   0.0000
       1
-0.000000000-0.000000000 0.000000000-0.000000161-0.000000161 0.000001525
-0.000040924-0.000040924-0.000000131
       2
-0.000000407-0.000000255 0.000000097-0.000000555-0.000000071 0.000000394
-0.000029706-0.000036063-0.000001039
       3
-0.000001160-0.000000646 0.000000479-0.000001573 0.000000202-0.000002384
-0.000000096-0.000023255-0.000003102
       4
-0.000001603-0.000000657 0.000001085-0.000002404 0.000000776-0.000004784
 0.000037435-0.000007127-0.000004541
       5
-0.000001443-0.000000325 0.000001547-0.000001902-0.000004187 0.000001619
 0.000070211 0.000006934-0.000003061
       6
-0.000000471 0.000000022 0.000001701 0.000000074 0.000000889 0.000001977
 0.000003249 0.000015329 0.000088218
       7
 0.000000975 0.000000176 0.000001661 0.000010409 0.000002330 0.000000925
 0.000014979 0.000017471 0.000087507
       8
 0.000001635 0.000000136 0.000001577 0.000023117 0.000003375 0.000030940
-0.000001410 0.000015260 0.000070841
       9
 0.000000032 0.000001053 0.000001519 0.000035200 0.000002596 0.000048700
-0.000002989 0.000011607 0.000045552
      10
-0.000000032 0.000000476 0.000001493 0.000039582 0.000000853 0.000066480
 0.000000335 0.000008845 0.000019485
      11
-0.000000049 0.000000379 0.000001486 0.000034439-0.000000058 0.000079666
 0.000011869 0.000007900-0.000000879
      12
 0.000000199 0.000000446 0.000001620 0.000033702 0.000001194 0.000074737
 0.000008229 0.000008825-0.000003417
      13
 0.000000842 0.000000697 0.000002034 0.000032136 0.000062255 0.000002822
 0.000004018 0.000005841-0.000009434
      14
 0.000001149 0.000001634 0.000002525 0.000031123 0.000047850 0.000000640
-0.000001972-0.000015019 0.000002775
      15
 0.000001646 0.000002308 0.000002800 0.000031575 0.000037244-0.000007706
-0.000007986-0.000015660 0.000001343
      16
 0.000001887 0.000002714 0.000002714 0.000032991 0.000032991-0.000018838
-0.000009877-0.000009877 0.000001080
      17
 0.000001675 0.000002390 0.000002857 0.000033096 0.000033586-0.000011902
-0.000007089-0.000013455 0.000001639
      18
 0.000001112 0.000001925 0.000002888 0.000033641 0.000032267-0.000003943
-0.000002135 0.000004511-0.000008194
      19
 0.000000614 0.000001420 0.000002867 0.000031589 0.000028190 0.000002228
 0.000002632 0.000010321 0.000008280
      20
 0.000000655 0.000000955 0.000002827 0.000025214 0.000005494 0.000021430
 0.000005759 0.000017644 0.000032814
      21
 0.000000759 0.000000573 0.000002773 0.000015684 0.000005599 0.000006708
 0.000013080 0.000023656 0.000058302
      22
 0.000000033 0.000000257 0.000002662 0.000006167 0.000003361 0.000005761
 0.000004910 0.000025242 0.000075783
      23
-0.000001058-0.000000060 0.000002402-0.000001012 0.000000347 0.000003802
-0.000001304 0.000020253 0.000077852
      24
-0.000001648-0.000000418 0.000001893-0.000001808-0.000004688 0.000001880
 0.000061889 0.000008552-0.000004485
      25
-0.000001610-0.000000696 0.000001160-0.000002260 0.000000667-0.000004641
 0.000031729-0.000007603-0.000004671
      26
-0.000001112-0.000000633 0.000000463-0.000001459 0.000000145-0.000002156
-0.000003068-0.000024113-0.000002959
      27
-0.000000380-0.000000239 0.000000090-0.000000524-0.000000080 0.000000475
-0.000030532-0.000036394-0.000000976
      28
-0.000000000-0.000000000 0.000000000-0.000000161-0.000000161 0.000001525
-0.000040924-0.000040924-0.000000131
      29
 0.000000068 0.000000068 0.000000422-0.000000074-0.000000074 0.000001629
 0.000006812 0.000006812-0.000000113
      30
 0.000000268 0.000000268 0.000001695 0.000000189 0.000000189 0.000001853
 0.000140563 0.000140563-0.000000062
      31
 0.000000586 0.000000586 0.000003683 0.000000619 0.000000619 0.000002079
 0.000333842 0.000333842 0.000000011
      32
 0.000000975 0.000000975 0.000005989 0.000001172 0.000001172 0.000002301
 0.000548361 0.000548361 0.000000092
      33
 0.000001343 0.000001343 0.000001750 0.000001750 0.000008236 0.000002395
 0.000741640 0.000741640 0.000000165
      34
 0.000001501 0.000001501 0.000002302 0.000002302 0.000010331 0.000001955
 0.000875391 0.000875391 0.000000216
      35
-0.000000012-0.000000012 0.000004080 0.000004080 0.000011569 0.000001315
 0.000923127 0.000923127 0.000000234
      36
-0.000000044 0.000000065 0.000004498 0.000006193 0.000010935 0.000000212
 0.000875060 0.000857720-0.000000182
      37
-0.000000118 0.000000168 0.000005138 0.000009473 0.000011061-0.000002212
 0.000743220 0.000680737-0.000001096
      38
-0.000000175 0.000000121 0.000008995 0.000004843 0.000013219-0.000003932
 0.000561561 0.000442698-0.000001587
      39
-0.000000142-0.000000015 0.000007590 0.000003284-0.000003056 0.000010945
-0.000000391 0.000373260 0.000206918
      40
 0.000000035 0.000000038 0.000005806 0.000001566 0.000001187 0.000003954
 0.000003641 0.000027591 0.000214597
      41
 0.000000362 0.000000444 0.000003919 0.000001179 0.000008248-0.000003890
 0.000010964-0.000066818 0.000104611
      42
 0.000000787 0.000002282 0.000000946 0.000002160 0.000016667 0.000020920
-0.000008027-0.000079323 0.000043331
      43
 0.000001213 0.000001098 0.000001073 0.000002665 0.000024305 0.000031877
-0.000006415-0.000039019 0.000017330
      44
 0.000001526 0.000000409 0.000000760 0.000001453 0.000027841 0.000042424
-0.000000889 0.000011699 0.000008965
      45
 0.000001641 0.000000185 0.000000533 0.000000414 0.000024819 0.000050737
 0.000034019 0.000004565 0.000004854
      46
 0.000001586 0.000000119 0.000000529 0.000002441 0.000026618 0.000049637
 0.000050095 0.000009646-0.000003769
      47
 0.000001414 0.000000054 0.000000488 0.000031425 0.000008789 0.000047116
 0.000077871 0.000021559-0.000007898
      48
 0.000000191 0.000001120 0.000000386 0.000037581 0.000044896 0.000018841
 0.000103270 0.000034570 0.000004388
      49
 0.000000461 0.000000739 0.000000310 0.000042743 0.000044224 0.000028106
 0.000042866 0.000024691 0.000124509
      50
 0.000000589 0.000000416 0.000000416 0.000044629 0.000044629 0.000026420
 0.000045902 0.000045901 0.000128575
      51
 0.000000525 0.000000635 0.000000369 0.000044212 0.000042738 0.000023115
 0.000044263 0.000122766 0.000034021
      52
 0.000000446 0.000000825 0.000000611 0.000041474 0.000037744 0.000012279
 0.000025898 0.000101151 0.000018207
      53
 0.000000527 0.000000853 0.000000983 0.000035614 0.000030384 0.000000973
 0.000002259 0.000059635 0.000002275
      54
 0.000000695 0.000000945 0.000001130 0.000027067-0.000006970 0.000021827
-0.000013216 0.000007029-0.000000560
      55
 0.000000420 0.000001886 0.000000847 0.000017263-0.000009836-0.000015403
 0.000013406-0.000029405 0.000027028
      56
 0.000000131 0.000000337 0.000003427-0.000008000 0.000007980-0.000007706
 0.000006332-0.000014201 0.000100156
      57
-0.000000085 0.000000004 0.000005407-0.000003433 0.000000806 0.000003034
 0.000001413 0.000078437 0.000224866
      58
-0.000000186 0.000000002 0.000007443 0.000001302-0.000003178 0.000010815
-0.000001130 0.000250218 0.000393019
      59
-0.000000181 0.000000136 0.000009132 0.000004263 0.000012790-0.000003791
 0.000581283 0.000473525-0.000001675
      60
-0.000000114 0.000000165 0.000004991 0.000009449 0.000010798-0.000002021
 0.000755310 0.000697244-0.000001036
      61
-0.000000042 0.000000061 0.000004464 0.000006058 0.000010967 0.000000289
 0.000878565 0.000862436-0.000000153
      62
-0.000000012-0.000000012 0.000004080 0.000004080 0.000011569 0.000001315
 0.000923127 0.000923127 0.000000234
      63
 0.000001641 0.000000185 0.000000533 0.000000414 0.000024819 0.000050737
 0.000034019 0.000004565 0.000004854
      64
 0.000001568 0.000000210 0.000000552 0.000000389 0.000025323 0.000052191
 0.000032715 0.000004890 0.000004568
      65
 0.000001356 0.000000271 0.000000628 0.000000322 0.000026715 0.000056255
 0.000029068 0.000005820 0.000003767
      66
 0.000001037 0.000000338 0.000000789 0.000000226 0.000028674 0.000062093
 0.000023812 0.000007218 0.000002613
      67
 0.000000661 0.000000383 0.000001031 0.000000121 0.000030785 0.000068529
 0.000017999 0.000008843 0.000001338
      68
 0.000000304 0.000000394 0.000001279 0.000032656 0.000000028 0.000074289
 0.000012782 0.000010374 0.000000193
      69
 0.000000046 0.000000385 0.000001439 0.000033962-0.000000035 0.000078255
 0.000011471 0.000009182-0.000000598
      70
-0.000000049 0.000000379 0.000001486 0.000034439-0.000000058 0.000079666
 0.000011869 0.000007900-0.000000879
      71
 0.000000589 0.000000416 0.000000416 0.000044629 0.000044629 0.000026420
 0.000045902 0.000045901 0.000128575
      72
 0.000000621 0.000000593 0.000000593 0.000044036 0.000044036 0.000024177
 0.000043086 0.000043086 0.000122300
      73
 0.000000740 0.000001052 0.000001052 0.000042382 0.000042382 0.000017891
 0.000035229 0.000035229 0.000104688
      74
 0.000000969 0.000001622 0.000001622 0.000040017 0.000040017 0.000008813
 0.000023956 0.000023955 0.000079169
      75
 0.000001279 0.000002129 0.000002129 0.000037426 0.000037426-0.000001258
 0.000011549 0.000011548 0.000050777
      76
 0.000001587 0.000002477 0.000002477 0.000035125 0.000035125-0.000010327
 0.000000460 0.000000460 0.000025157
      77
 0.000001807 0.000002660 0.000002660 0.000033550 0.000033550-0.000016600
-0.000007165-0.000007165 0.000007414
      78
 0.000001887 0.000002714 0.000002714 0.000032991 0.000032991-0.000018838
-0.000009877-0.000009877 0.000001080
 Norm of the difference between old and new effective charges:    0.00000000000000000000

 Norm of the difference between old and new force-constants:   0.00093588049179941352

 Broadening   0.0000
       1
-0.000000000-0.000000000 0.000000000-0.000000161-0.000000161 0.000001525
-0.000040924-0.000040924-0.000000131
       2
-0.000000407-0.000000255 0.000000097-0.000000555-0.000000071 0.000000394
-0.000029706-0.000036063-0.000001039
       3
-0.000001160-0.000000646 0.000000479-0.000001573 0.000000202-0.000002384
-0.000000096-0.000023255-0.000003102
       4
-0.000001603-0.000000657 0.000001085-0.000002404 0.000000776-0.000004784
 0.000037435-0.000007127-0.000004541
       5
-0.000001443-0.000000325 0.000001547-0.000001902-0.000004187 0.000001619
 0.000070211 0.000006934-0.000003061
       6
-0.000000471 0.000000022 0.000001701 0.000000074 0.000000889 0.000001977
 0.000003249 0.000015329 0.000088218
       7
 0.000000975 0.000000176 0.000001661 0.000010409 0.000002330 0.000000925
 0.000014979 0.000017471 0.000087507
       8
 0.000001635 0.000000136 0.000001577 0.000023117 0.000003375 0.000030940
-0.000001410 0.000015260 0.000070841
       9
 0.000000032 0.000001053 0.000001519 0.000035200 0.000002596 0.000048700
-0.000002989 0.000011607 0.000045552
      10
-0.000000032 0.000000476 0.000001493 0.000039582 0.000000853 0.000066480
 0.000000335 0.000008845 0.000019485
      11
-0.000000049 0.000000379 0.000001486 0.000034439-0.000000058 0.000079666
 0.000011869 0.000007900-0.000000879
      12
 0.000000199 0.000000446 0.000001620 0.000033702 0.000001194 0.000074737
 0.000008229 0.000008825-0.000003417
      13
 0.000000842 0.000000697 0.000002034 0.000032136 0.000062255 0.000002822
 0.000004018 0.000005841-0.000009434
      14
 0.000001149 0.000001634 0.000002525 0.000031123 0.000047850 0.000000640
-0.000001972-0.000015019 0.000002775
      15
 0.000001646 0.000002308 0.000002800 0.000031575 0.000037244-0.000007706
-0.000007986-0.000015660 0.000001343
      16
 0.000001887 0.000002714 0.000002714 0.000032991 0.000032991-0.000018838
-0.000009877-0.000009877 0.000001080
      17
 0.000001675 0.000002390 0.000002857 0.000033096 0.000033586-0.000011902
-0.000007089-0.000013455 0.000001639
      18
 0.000001112 0.000001925 0.000002888 0.000033641 0.000032267-0.000003943
-0.000002135 0.000004511-0.000008194
      19
 0.000000614 0.000001420 0.000002867 0.000031589 0.000028190 0.000002228
 0.000002632 0.000010321 0.000008280
      20
 0.000000655 0.000000955 0.000002827 0.000025214 0.000005494 0.000021430
 0.000005759 0.000017644 0.000032814
      21
 0.000000759 0.000000573 0.000002773 0.000015684 0.000005599 0.000006708
 0.000013080 0.000023656 0.000058302
      22
 0.000000033 0.000000257 0.000002662 0.000006167 0.000003361 0.000005761
 0.000004910 0.000025242 0.000075783
      23
-0.000001058-0.000000060 0.000002402-0.000001012 0.000000347 0.000003802
-0.000001304 0.000020253 0.000077852
      24
-0.000001648-0.000000418 0.000001893-0.000001808-0.000004688 0.000001880
 0.000061889 0.000008552-0.000004485
      25
-0.000001610-0.000000696 0.000001160-0.000002260 0.000000667-0.000004641
 0.000031729-0.000007603-0.000004671
      26
-0.000001112-0.000000633 0.000000463-0.000001459 0.000000145-0.000002156
-0.000003068-0.000024113-0.000002959
      27
-0.000000380-0.000000239 0.000000090-0.000000524-0.000000080 0.000000475
-0.000030532-0.000036394-0.000000976
      28
-0.000000000-0.000000000 0.000000000-0.000000161-0.000000161 0.000001525
-0.000040924-0.000040924-0.000000131
      29
 0.000000068 0.000000068 0.000000422-0.000000074-0.000000074 0.000001629
 0.000006812 0.000006812-0.000000113
      30
 0.000000268 0.000000268 0.000001695 0.000000189 0.000000189 0.000001853
 0.000140563 0.000140563-0.000000062
      31
 0.000000586 0.000000586 0.000003683 0.000000619 0.000000619 0.000002079
 0.000333842 0.000333842 0.000000011
      32
 0.000000975 0.000000975 0.000005989 0.000001172 0.000001172 0.000002301
 0.000548361 0.000548361 0.000000092
      33
 0.000001343 0.000001343 0.000001750 0.000001750 0.000008236 0.000002395
 0.000741640 0.000741640 0.000000165
      34
 0.000001501 0.000001501 0.000002302 0.000002302 0.000010331 0.000001955
 0.000875391 0.000875391 0.000000216
      35
-0.000000012-0.000000012 0.000004080 0.000004080 0.000011569 0.000001315
 0.000923127 0.000923127 0.000000234
      36
-0.000000044 0.000000065 0.000004498 0.000006193 0.000010935 0.000000212
 0.000875060 0.000857720-0.000000182
      37
-0.000000118 0.000000168 0.000005138 0.000009473 0.000011061-0.000002212
 0.000743220 0.000680737-0.000001096
      38
-0.000000175 0.000000121 0.000008995 0.000004843 0.000013219-0.000003932
 0.000561561 0.000442698-0.000001587
      39
-0.000000142-0.000000015 0.000007590 0.000003284-0.000003056 0.000010945
-0.000000391 0.000373260 0.000206918
      40
 0.000000035 0.000000038 0.000005806 0.000001566 0.000001187 0.000003954
 0.000003641 0.000027591 0.000214597
      41
 0.000000362 0.000000444 0.000003919 0.000001179 0.000008248-0.000003890
 0.000010964-0.000066818 0.000104611
      42
 0.000000787 0.000002282 0.000000946 0.000002160 0.000016667 0.000020920
-0.000008027-0.000079323 0.000043331
      43
 0.000001213 0.000001098 0.000001073 0.000002665 0.000024305 0.000031877
-0.000006415-0.000039019 0.000017330
      44
 0.000001526 0.000000409 0.000000760 0.000001453 0.000027841 0.000042424
-0.000000889 0.000011699 0.000008965
      45
 0.000001641 0.000000185 0.000000533 0.000000414 0.000024819 0.000050737
 0.000034019 0.000004565 0.000004854
      46
 0.000001586 0.000000119 0.000000529 0.000002441 0.000026618 0.000049637
 0.000050095 0.000009646-0.000003769
      47
 0.000001414 0.000000054 0.000000488 0.000031425 0.000008789 0.000047116
 0.000077871 0.000021559-0.000007898
      48
 0.000000191 0.000001120 0.000000386 0.000037581 0.000044896 0.000018841
 0.000103270 0.000034570 0.000004388
      49
 0.000000461 0.000000739 0.000000310 0.000042743 0.000044224 0.000028106
 0.000042866 0.000024691 0.000124509
      50
 0.000000589 0.000000416 0.000000416 0.000044629 0.000044629 0.000026420
 0.000045902 0.000045901 0.000128575
      51
 0.000000525 0.000000635 0.000000369 0.000044212 0.000042738 0.000023115
 0.000044263 0.000122766 0.000034021
      52
 0.000000446 0.000000825 0.000000611 0.000041474 0.000037744 0.000012279
 0.000025898 0.000101151 0.000018207
      53
 0.000000527 0.000000853 0.000000983 0.000035614 0.000030384 0.000000973
 0.000002259 0.000059635 0.000002275
      54
 0.000000695 0.000000945 0.000001130 0.000027067-0.000006970 0.000021827
-0.000013216 0.000007029-0.000000560
      55
 0.000000420 0.000001886 0.000000847 0.000017263-0.000009836-0.000015403
 0.000013406-0.000029405 0.000027028
      56
 0.000000131 0.000000337 0.000003427-0.000008000 0.000007980-0.000007706
 0.000006332-0.000014201 0.000100156
      57
-0.000000085 0.000000004 0.000005407-0.000003433 0.000000806 0.000003034
 0.000001413 0.000078437 0.000224866
      58
-0.000000186 0.000000002 0.000007443 0.000001302-0.000003178 0.000010815
-0.000001130 0.000250218 0.000393019
      59
-0.000000181 0.000000136 0.000009132 0.000004263 0.000012790-0.000003791
 0.000581283 0.000473525-0.000001675
      60
-0.000000114 0.000000165 0.000004991 0.000009449 0.000010798-0.000002021
 0.000755310 0.000697244-0.000001036
      61
-0.000000042 0.000000061 0.000004464 0.000006058 0.000010967 0.000000289
 0.000878565 0.000862436-0.000000153
      62
-0.000000012-0.000000012 0.000004080 0.000004080 0.000011569 0.000001315
 0.000923127 0.000923127 0.000000234
      63
 0.000001641 0.000000185 0.000000533 0.000000414 0.000024819 0.000050737
 0.000034019 0.000004565 0.000004854
      64
 0.000001568 0.000000210 0.000000552 0.000000389 0.000025323 0.000052191
 0.000032715 0.000004890 0.000004568
      65
 0.000001356 0.000000271 0.000000628 0.000000322 0.000026715 0.000056255
 0.000029068 0.000005820 0.000003767
      66
 0.000001037 0.000000338 0.000000789 0.000000226 0.000028674 0.000062093
 0.000023812 0.000007218 0.000002613
      67
 0.000000661 0.000000383 0.000001031 0.000000121 0.000030785 0.000068529
 0.000017999 0.000008843 0.000001338
      68
 0.000000304 0.000000394 0.000001279 0.000032656 0.000000028 0.000074289
 0.000012782 0.000010374 0.000000193
      69
 0.000000046 0.000000385 0.000001439 0.000033962-0.000000035 0.000078255
 0.000011471 0.000009182-0.000000598
      70
-0.000000049 0.000000379 0.000001486 0.000034439-0.000000058 0.000079666
 0.000011869 0.000007900-0.000000879
      71
 0.000000589 0.000000416 0.000000416 0.000044629 0.000044629 0.000026420
 0.000045902 0.000045901 0.000128575
      72
 0.000000621 0.000000593 0.000000593 0.000044036 0.000044036 0.000024177
 0.000043086 0.000043086 0.000122300
      73
 0.000000740 0.000001052 0.000001052 0.000042382 0.000042382 0.000017891
 0.000035229 0.000035229 0.000104688
      74
 0.000000969 0.000001622 0.000001622 0.000040017 0.000040017 0.000008813
 0.000023956 0.000023955 0.000079169
      75
 0.000001279 0.000002129 0.000002129 0.000037426 0.000037426-0.000001258
 0.000011549 0.000011548 0.000050777
      76
 0.000001587 0.000002477 0.000002477 0.000035125 0.000035125-0.000010327
 0.000000460 0.000000460 0.000025157
      77
 0.000001807 0.000002660 0.000002660 0.000033550 0.000033550-0.000016600
-0.000007165-0.000007165 0.000007414
      78
 0.000001887 0.000002714 0.000002714 0.000032991 0.000032991-0.000018838
-0.000009877-0.000009877 0.000001080
 Norm of the difference between old and new effective charges:    0.00000000000000000000

 Norm of the difference between old and new force-constants:   0.00093588049179941352

 Broadening   0.0000
       1
-0.000000000-0.000000000 0.000000000-0.000000161-0.000000161 0.000001525
-0.000040924-0.000040924-0.000000131
       2
-0.000000407-0.000000255 0.000000097-0.000000555-0.000000071 0.000000394
-0.000029706-0.000036063-0.000001039
       3
-0.000001160-0.000000646 0.000000479-0.000001573 0.000000202-0.000002384
-0.000000096-0.000023255-0.000003102
       4
-0.000001603-0.000000657 0.000001085-0.000002404 0.000000776-0.000004784
 0.000037435-0.000007127-0.000004541
       5
-0.000001443-0.000000325 0.000001547-0.000001902-0.000004187 0.000001619
 0.000070211 0.000006934-0.000003061
       6
-0.000000471 0.000000022 0.000001701 0.000000074 0.000000889 0.000001977
 0.000003249 0.000015329 0.000088218
       7
 0.000000975 0.000000176 0.000001661 0.000010409 0.000002330 0.000000925
 0.000014979 0.000017471 0.000087507
       8
 0.000001635 0.000000136 0.000001577 0.000023117 0.000003375 0.000030940
-0.000001410 0.000015260 0.000070841
       9
 0.000000032 0.000001053 0.000001519 0.000035200 0.000002596 0.000048700
-0.000002989 0.000011607 0.000045552
      10
-0.000000032 0.000000476 0.000001493 0.000039582 0.000000853 0.000066480
 0.000000335 0.000008845 0.000019485
      11
-0.000000049 0.000000379 0.000001486 0.000034439-0.000000058 0.000079666
 0.000011869 0.000007900-0.000000879
      12
 0.000000199 0.000000446 0.000001620 0.000033702 0.000001194 0.000074737
 0.000008229 0.000008825-0.000003417
      13
 0.000000842 0.000000697 0.000002034 0.000032136 0.000062255 0.000002822
 0.000004018 0.000005841-0.000009434
      14
 0.000001149 0.000001634 0.000002525 0.000031123 0.000047850 0.000000640
-0.000001972-0.000015019 0.000002775
      15
 0.000001646 0.000002308 0.000002800 0.000031575 0.000037244-0.000007706
-0.000007986-0.000015660 0.000001343
      16
 0.000001887 0.000002714 0.000002714 0.000032991 0.000032991-0.000018838
-0.000009877-0.000009877 0.000001080
      17
 0.000001675 0.000002390 0.000002857 0.000033096 0.000033586-0.000011902
-0.000007089-0.000013455 0.000001639
      18
 0.000001112 0.000001925 0.000002888 0.000033641 0.000032267-0.000003943
-0.000002135 0.000004511-0.000008194
      19
 0.000000614 0.000001420 0.000002867 0.000031589 0.000028190 0.000002228
 0.000002632 0.000010321 0.000008280
      20
 0.000000655 0.000000955 0.000002827 0.000025214 0.000005494 0.000021430
 0.000005759 0.000017644 0.000032814
      21
 0.000000759 0.000000573 0.000002773 0.000015684 0.000005599 0.000006708
 0.000013080 0.000023656 0.000058302
      22
 0.000000033 0.000000257 0.000002662 0.000006167 0.000003361 0.000005761
 0.000004910 0.000025242 0.000075783
      23
-0.000001058-0.000000060 0.000002402-0.000001012 0.000000347 0.000003802
-0.000001304 0.000020253 0.000077852
      24
-0.000001648-0.000000418 0.000001893-0.000001808-0.000004688 0.000001880
 0.000061889 0.000008552-0.000004485
      25
-0.000001610-0.000000696 0.000001160-0.000002260 0.000000667-0.000004641
 0.000031729-0.000007603-0.000004671
      26
-0.000001112-0.000000633 0.000000463-0.000001459 0.000000145-0.000002156
-0.000003068-0.000024113-0.000002959
      27
-0.000000380-0.000000239 0.000000090-0.000000524-0.000000080 0.000000475
-0.000030532-0.000036394-0.000000976
      28
-0.000000000-0.000000000 0.000000000-0.000000161-0.000000161 0.000001525
-0.000040924-0.000040924-0.000000131
      29
 0.000000068 0.000000068 0.000000422-0.000000074-0.000000074 0.000001629
 0.000006812 0.000006812-0.000000113
      30
 0.000000268 0.000000268 0.000001695 0.000000189 0.000000189 0.000001853
 0.000140563 0.000140563-0.000000062
      31
 0.000000586 0.000000586 0.000003683 0.000000619 0.000000619 0.000002079
 0.000333842 0.000333842 0.000000011
      32
 0.000000975 0.000000975 0.000005989 0.000001172 0.000001172 0.000002301
 0.000548361 0.000548361 0.000000092
      33
 0.000001343 0.000001343 0.000001750 0.000001750 0.000008236 0.000002395
 0.000741640 0.000741640 0.000000165
      34
 0.000001501 0.000001501 0.000002302 0.000002302 0.000010331 0.000001955
 0.000875391 0.000875391 0.000000216
      35
-0.000000012-0.000000012 0.000004080 0.000004080 0.000011569 0.000001315
 0.000923127 0.000923127 0.000000234
      36
-0.000000044 0.000000065 0.000004498 0.000006193 0.000010935 0.000000212
 0.000875060 0.000857720-0.000000182
      37
-0.000000118 0.000000168 0.000005138 0.000009473 0.000011061-0.000002212
 0.000743220 0.000680737-0.000001096
      38
-0.000000175 0.000000121 0.000008995 0.000004843 0.000013219-0.000003932
 0.000561561 0.000442698-0.000001587
      39
-0.000000142-0.000000015 0.000007590 0.000003284-0.000003056 0.000010945
-0.000000391 0.000373260 0.000206918
      40
 0.000000035 0.000000038 0.000005806 0.000001566 0.000001187 0.000003954
 0.000003641 0.000027591 0.000214597
      41
 0.000000362 0.000000444 0.000003919 0.000001179 0.000008248-0.000003890
 0.000010964-0.000066818 0.000104611
      42
 0.000000787 0.000002282 0.000000946 0.000002160 0.000016667 0.000020920
-0.000008027-0.000079323 0.000043331
      43
 0.000001213 0.000001098 0.000001073 0.000002665 0.000024305 0.000031877
-0.000006415-0.000039019 0.000017330
      44
 0.000001526 0.000000409 0.000000760 0.000001453 0.000027841 0.000042424
-0.000000889 0.000011699 0.000008965
      45
 0.000001641 0.000000185 0.000000533 0.000000414 0.000024819 0.000050737
 0.000034019 0.000004565 0.000004854
      46
 0.000001586 0.000000119 0.000000529 0.000002441 0.000026618 0.000049637
 0.000050095 0.000009646-0.000003769
      47
 0.000001414 0.000000054 0.000000488 0.000031425 0.000008789 0.000047116
 0.000077871 0.000021559-0.000007898
      48
 0.000000191 0.000001120 0.000000386 0.000037581 0.000044896 0.000018841
 0.000103270 0.000034570 0.000004388
      49
 0.000000461 0.000000739 0.000000310 0.000042743 0.000044224 0.000028106
 0.000042866 0.000024691 0.000124509
      50
 0.000000589 0.000000416 0.000000416 0.000044629 0.000044629 0.000026420
 0.000045902 0.000045901 0.000128575
      51
 0.000000525 0.000000635 0.000000369 0.000044212 0.000042738 0.000023115
 0.000044263 0.000122766 0.000034021
      52
 0.000000446 0.000000825 0.000000611 0.000041474 0.000037744 0.000012279
 0.000025898 0.000101151 0.000018207
      53
 0.000000527 0.000000853 0.000000983 0.000035614 0.000030384 0.000000973
 0.000002259 0.000059635 0.000002275
      54
 0.000000695 0.000000945 0.000001130 0.000027067-0.000006970 0.000021827
-0.000013216 0.000007029-0.000000560
      55
 0.000000420 0.000001886 0.000000847 0.000017263-0.000009836-0.000015403
 0.000013406-0.000029405 0.000027028
      56
 0.000000131 0.000000337 0.000003427-0.000008000 0.000007980-0.000007706
 0.000006332-0.000014201 0.000100156
      57
-0.000000085 0.000000004 0.000005407-0.000003433 0.000000806 0.000003034
 0.000001413 0.000078437 0.000224866
      58
-0.000000186 0.000000002 0.000007443 0.000001302-0.000003178 0.000010815
-0.000001130 0.000250218 0.000393019
      59
-0.000000181 0.000000136 0.000009132 0.000004263 0.000012790-0.000003791
 0.000581283 0.000473525-0.000001675
      60
-0.000000114 0.000000165 0.000004991 0.000009449 0.000010798-0.000002021
 0.000755310 0.000697244-0.000001036
      61
-0.000000042 0.000000061 0.000004464 0.000006058 0.000010967 0.000000289
 0.000878565 0.000862436-0.000000153
      62
-0.000000012-0.000000012 0.000004080 0.000004080 0.000011569 0.000001315
 0.000923127 0.000923127 0.000000234
      63
 0.000001641 0.000000185 0.000000533 0.000000414 0.000024819 0.000050737
 0.000034019 0.000004565 0.000004854
      64
 0.000001568 0.000000210 0.000000552 0.000000389 0.000025323 0.000052191
 0.000032715 0.000004890 0.000004568
      65
 0.000001356 0.000000271 0.000000628 0.000000322 0.000026715 0.000056255
 0.000029068 0.000005820 0.000003767
      66
 0.000001037 0.000000338 0.000000789 0.000000226 0.000028674 0.000062093
 0.000023812 0.000007218 0.000002613
      67
 0.000000661 0.000000383 0.000001031 0.000000121 0.000030785 0.000068529
 0.000017999 0.000008843 0.000001338
      68
 0.000000304 0.000000394 0.000001279 0.000032656 0.000000028 0.000074289
 0.000012782 0.000010374 0.000000193
      69
 0.000000046 0.000000385 0.000001439 0.000033962-0.000000035 0.000078255
 0.000011471 0.000009182-0.000000598
      70
-0.000000049 0.000000379 0.000001486 0.000034439-0.000000058 0.000079666
 0.000011869 0.000007900-0.000000879
      71
 0.000000589 0.000000416 0.000000416 0.000044629 0.000044629 0.000026420
 0.000045902 0.000045901 0.000128575
      72
 0.000000621 0.000000593 0.000000593 0.000044036 0.000044036 0.000024177
 0.000043086 0.000043086 0.000122300
      73
 0.000000740 0.000001052 0.000001052 0.000042382 0.000042382 0.000017891
 0.000035229 0.000035229 0.000104688
      74
 0.000000969 0.000001622 0.000001622 0.000040017 0.000040017 0.000008813
 0.000023956 0.000023955 0.000079169
      75
 0.000001279 0.000002129 0.000002129 0.000037426 0.000037426-0.000001258
 0.000011549 0.000011548 0.000050777
      76
 0.000001587 0.000002477 0.000002477 0.000035125 0.000035125-0.000010327
 0.000000460 0.000000460 0.000025157
      77
 0.000001807 0.000002660 0.000002660 0.000033550 0.000033550-0.000016600
-0.000007165-0.000007165 0.000007414
      78
 0.000001887 0.000002714 0.000002714 0.000032991 0.000032991-0.000018838
-0.000009877-0.000009877 0.000001080
 Norm of the difference between old and new effective charges:    0.00000000000000000000

 Norm of the difference between old and new force-constants:   0.00093588049179941352

 Broadening   0.0000
       1
-0.000000000-0.000000000 0.000000000-0.000000161-0.000000161 0.000001525
-0.000040924-0.000040924-0.000000131
       2
-0.000000407-0.000000255 0.000000097-0.000000555-0.000000071 0.000000394
-0.000029706-0.000036063-0.000001039
       3
-0.000001160-0.000000646 0.000000479-0.000001573 0.000000202-0.000002384
-0.000000096-0.000023255-0.000003102
       4
-0.000001603-0.000000657 0.000001085-0.000002404 0.000000776-0.000004784
 0.000037435-0.000007127-0.000004541
       5
-0.000001443-0.000000325 0.000001547-0.000001902-0.000004187 0.000001619
 0.000070211 0.000006934-0.000003061
       6
-0.000000471 0.000000022 0.000001701 0.000000074 0.000000889 0.000001977
 0.000003249 0.000015329 0.000088218
       7
 0.000000975 0.000000176 0.000001661 0.000010409 0.000002330 0.000000925
 0.000014979 0.000017471 0.000087507
       8
 0.000001635 0.000000136 0.000001577 0.000023117 0.000003375 0.000030940
-0.000001410 0.000015260 0.000070841
       9
 0.000000032 0.000001053 0.000001519 0.000035200 0.000002596 0.000048700
-0.000002989 0.000011607 0.000045552
      10
-0.000000032 0.000000476 0.000001493 0.000039582 0.000000853 0.000066480
 0.000000335 0.000008845 0.000019485
      11
-0.000000049 0.000000379 0.000001486 0.000034439-0.000000058 0.000079666
 0.000011869 0.000007900-0.000000879
      12
 0.000000199 0.000000446 0.000001620 0.000033702 0.000001194 0.000074737
 0.000008229 0.000008825-0.000003417
      13
 0.000000842 0.000000697 0.000002034 0.000032136 0.000062255 0.000002822
 0.000004018 0.000005841-0.000009434
      14
 0.000001149 0.000001634 0.000002525 0.000031123 0.000047850 0.000000640
-0.000001972-0.000015019 0.000002775
      15
 0.000001646 0.000002308 0.000002800 0.000031575 0.000037244-0.000007706
-0.000007986-0.000015660 0.000001343
      16
 0.000001887 0.000002714 0.000002714 0.000032991 0.000032991-0.000018838
-0.000009877-0.000009877 0.000001080
      17
 0.000001675 0.000002390 0.000002857 0.000033096 0.000033586-0.000011902
-0.000007089-0.000013455 0.000001639
      18
 0.000001112 0.000001925 0.000002888 0.000033641 0.000032267-0.000003943
-0.000002135 0.000004511-0.000008194
      19
 0.000000614 0.000001420 0.000002867 0.000031589 0.000028190 0.000002228
 0.000002632 0.000010321 0.000008280
      20
 0.000000655 0.000000955 0.000002827 0.000025214 0.000005494 0.000021430
 0.000005759 0.000017644 0.000032814
      21
 0.000000759 0.000000573 0.000002773 0.000015684 0.000005599 0.000006708
 0.000013080 0.000023656 0.000058302
      22
 0.000000033 0.000000257 0.000002662 0.000006167 0.000003361 0.000005761
 0.000004910 0.000025242 0.000075783
      23
-0.000001058-0.000000060 0.000002402-0.000001012 0.000000347 0.000003802
-0.000001304 0.000020253 0.000077852
      24
-0.000001648-0.000000418 0.000001893-0.000001808-0.000004688 0.000001880
 0.000061889 0.000008552-0.000004485
      25
-0.000001610-0.000000696 0.000001160-0.000002260 0.000000667-0.000004641
 0.000031729-0.000007603-0.000004671
      26
-0.000001112-0.000000633 0.000000463-0.000001459 0.000000145-0.000002156
-0.000003068-0.000024113-0.000002959
      27
-0.000000380-0.000000239 0.000000090-0.000000524-0.000000080 0.000000475
-0.000030532-0.000036394-0.000000976
      28
-0.000000000-0.000000000 0.000000000-0.000000161-0.000000161 0.000001525
-0.000040924-0.000040924-0.000000131
      29
 0.000000068 0.000000068 0.000000422-0.000000074-0.000000074 0.000001629
 0.000006812 0.000006812-0.000000113
      30
 0.000000268 0.000000268 0.000001695 0.000000189 0.000000189 0.000001853
 0.000140563 0.000140563-0.000000062
      31
 0.000000586 0.000000586 0.000003683 0.000000619 0.000000619 0.000002079
 0.000333842 0.000333842 0.000000011
      32
 0.000000975 0.000000975 0.000005989 0.000001172 0.000001172 0.000002301
 0.000548361 0.000548361 0.000000092
      33
 0.000001343 0.000001343 0.000001750 0.000001750 0.000008236 0.000002395
 0.000741640 0.000741640 0.000000165
      34
 0.000001501 0.000001501 0.000002302 0.000002302 0.000010331 0.000001955
 0.000875391 0.000875391 0.000000216
      35
-0.000000012-0.000000012 0.000004080 0.000004080 0.000011569 0.000001315
 0.000923127 0.000923127 0.000000234
      36
-0.000000044 0.000000065 0.000004498 0.000006193 0.000010935 0.000000212
 0.000875060 0.000857720-0.000000182
      37
-0.000000118 0.000000168 0.000005138 0.000009473 0.000011061-0.000002212
 0.000743220 0.000680737-0.000001096
      38
-0.000000175 0.000000121 0.000008995 0.000004843 0.000013219-0.000003932
 0.000561561 0.000442698-0.000001587
      39
-0.000000142-0.000000015 0.000007590 0.000003284-0.000003056 0.000010945
-0.000000391 0.000373260 0.000206918
      40
 0.000000035 0.000000038 0.000005806 0.000001566 0.000001187 0.000003954
 0.000003641 0.000027591 0.000214597
      41
 0.000000362 0.000000444 0.000003919 0.000001179 0.000008248-0.000003890
 0.000010964-0.000066818 0.000104611
      42
 0.000000787 0.000002282 0.000000946 0.000002160 0.000016667 0.000020920
-0.000008027-0.000079323 0.000043331
      43
 0.000001213 0.000001098 0.000001073 0.000002665 0.000024305 0.000031877
-0.000006415-0.000039019 0.000017330
      44
 0.000001526 0.000000409 0.000000760 0.000001453 0.000027841 0.000042424
-0.000000889 0.000011699 0.000008965
      45
 0.000001641 0.000000185 0.000000533 0.000000414 0.000024819 0.000050737
 0.000034019 0.000004565 0.000004854
      46
 0.000001586 0.000000119 0.000000529 0.000002441 0.000026618 0.000049637
 0.000050095 0.000009646-0.000003769
      47
 0.000001414 0.000000054 0.000000488 0.000031425 0.000008789 0.000047116
 0.000077871 0.000021559-0.000007898
      48
 0.000000191 0.000001120 0.000000386 0.000037581 0.000044896 0.000018841
 0.000103270 0.000034570 0.000004388
      49
 0.000000461 0.000000739 0.000000310 0.000042743 0.000044224 0.000028106
 0.000042866 0.000024691 0.000124509
      50
 0.000000589 0.000000416 0.000000416 0.000044629 0.000044629 0.000026420
 0.000045902 0.000045901 0.000128575
      51
 0.000000525 0.000000635 0.000000369 0.000044212 0.000042738 0.000023115
 0.000044263 0.000122766 0.000034021
      52
 0.000000446 0.000000825 0.000000611 0.000041474 0.000037744 0.000012279
 0.000025898 0.000101151 0.000018207
      53
 0.000000527 0.000000853 0.000000983 0.000035614 0.000030384 0.000000973
 0.000002259 0.000059635 0.000002275
      54
 0.000000695 0.000000945 0.000001130 0.000027067-0.000006970 0.000021827
-0.000013216 0.000007029-0.000000560
      55
 0.000000420 0.000001886 0.000000847 0.000017263-0.000009836-0.000015403
 0.000013406-0.000029405 0.000027028
      56
 0.000000131 0.000000337 0.000003427-0.000008000 0.000007980-0.000007706
 0.000006332-0.000014201 0.000100156
      57
-0.000000085 0.000000004 0.000005407-0.000003433 0.000000806 0.000003034
 0.000001413 0.000078437 0.000224866
      58
-0.000000186 0.000000002 0.000007443 0.000001302-0.000003178 0.000010815
-0.000001130 0.000250218 0.000393019
      59
-0.000000181 0.000000136 0.000009132 0.000004263 0.000012790-0.000003791
 0.000581283 0.000473525-0.000001675
      60
-0.000000114 0.000000165 0.000004991 0.000009449 0.000010798-0.000002021
 0.000755310 0.000697244-0.000001036
      61
-0.000000042 0.000000061 0.000004464 0.000006058 0.000010967 0.000000289
 0.000878565 0.000862436-0.000000153
      62
-0.000000012-0.000000012 0.000004080 0.000004080 0.000011569 0.000001315
 0.000923127 0.000923127 0.000000234
      63
 0.000001641 0.000000185 0.000000533 0.000000414 0.000024819 0.000050737
 0.000034019 0.000004565 0.000004854
      64
 0.000001568 0.000000210 0.000000552 0.000000389 0.000025323 0.000052191
 0.000032715 0.000004890 0.000004568
      65
 0.000001356 0.000000271 0.000000628 0.000000322 0.000026715 0.000056255
 0.000029068 0.000005820 0.000003767
      66
 0.000001037 0.000000338 0.000000789 0.000000226 0.000028674 0.000062093
 0.000023812 0.000007218 0.000002613
      67
 0.000000661 0.000000383 0.000001031 0.000000121 0.000030785 0.000068529
 0.000017999 0.000008843 0.000001338
      68
 0.000000304 0.000000394 0.000001279 0.000032656 0.000000028 0.000074289
 0.000012782 0.000010374 0.000000193
      69
 0.000000046 0.000000385 0.000001439 0.000033962-0.000000035 0.000078255
 0.000011471 0.000009182-0.000000598
      70
-0.000000049 0.000000379 0.000001486 0.000034439-0.000000058 0.000079666
 0.000011869 0.000007900-0.000000879
      71
 0.000000589 0.000000416 0.000000416 0.000044629 0.000044629 0.000026420
 0.000045902 0.000045901 0.000128575
      72
 0.000000621 0.000000593 0.000000593 0.000044036 0.000044036 0.000024177
 0.000043086 0.000043086 0.000122300
      73
 0.000000740 0.000001052 0.000001052 0.000042382 0.000042382 0.000017891
 0.000035229 0.000035229 0.000104688
      74
 0.000000969 0.000001622 0.000001622 0.000040017 0.000040017 0.000008813
 0.000023956 0.000023955 0.000079169
      75
 0.000001279 0.000002129 0.000002129 0.000037426 0.000037426-0.000001258
 0.000011549 0.000011548 0.000050777
      76
 0.000001587 0.000002477 0.000002477 0.000035125 0.000035125-0.000010327
 0.000000460 0.000000460 0.000025157
      77
 0.000001807 0.000002660 0.000002660 0.000033550 0.000033550-0.000016600
-0.000007165-0.000007165 0.000007414
      78
 0.000001887 0.000002714 0.000002714 0.000032991 0.000032991-0.000018838
-0.000009877-0.000009877 0.000001080
 Norm of the difference between old and new effective charges:    0.00000000000000000000

 Norm of the difference between old and new force-constants:   0.00093588049179941352

 Broadening   0.0000
       1
-0.000000000-0.000000000 0.000000000-0.000000161-0.000000161 0.000001525
-0.000040924-0.000040924-0.000000131
       2
-0.000000407-0.000000255 0.000000097-0.000000555-0.000000071 0.000000394
-0.000029706-0.000036063-0.000001039
       3
-0.000001160-0.000000646 0.000000479-0.000001573 0.000000202-0.000002384
-0.000000096-0.000023255-0.000003102
       4
-0.000001603-0.000000657 0.000001085-0.000002404 0.000000776-0.000004784
 0.000037435-0.000007127-0.000004541
       5
-0.000001443-0.000000325 0.000001547-0.000001902-0.000004187 0.000001619
 0.000070211 0.000006934-0.000003061
       6
-0.000000471 0.000000022 0.000001701 0.000000074 0.000000889 0.000001977
 0.000003249 0.000015329 0.000088218
       7
 0.000000975 0.000000176 0.000001661 0.000010409 0.000002330 0.000000925
 0.000014979 0.000017471 0.000087507
       8
 0.000001635 0.000000136 0.000001577 0.000023117 0.000003375 0.000030940
-0.000001410 0.000015260 0.000070841
       9
 0.000000032 0.000001053 0.000001519 0.000035200 0.000002596 0.000048700
-0.000002989 0.000011607 0.000045552
      10
-0.000000032 0.000000476 0.000001493 0.000039582 0.000000853 0.000066480
 0.000000335 0.000008845 0.000019485
      11
-0.000000049 0.000000379 0.000001486 0.000034439-0.000000058 0.000079666
 0.000011869 0.000007900-0.000000879
      12
 0.000000199 0.000000446 0.000001620 0.000033702 0.000001194 0.000074737
 0.000008229 0.000008825-0.000003417
      13
 0.000000842 0.000000697 0.000002034 0.000032136 0.000062255 0.000002822
 0.000004018 0.000005841-0.000009434
      14
 0.000001149 0.000001634 0.000002525 0.000031123 0.000047850 0.000000640
-0.000001972-0.000015019 0.000002775
      15
 0.000001646 0.000002308 0.000002800 0.000031575 0.000037244-0.000007706
-0.000007986-0.000015660 0.000001343
      16
 0.000001887 0.000002714 0.000002714 0.000032991 0.000032991-0.000018838
-0.000009877-0.000009877 0.000001080
      17
 0.000001675 0.000002390 0.000002857 0.000033096 0.000033586-0.000011902
-0.000007089-0.000013455 0.000001639
      18
 0.000001112 0.000001925 0.000002888 0.000033641 0.000032267-0.000003943
-0.000002135 0.000004511-0.000008194
      19
 0.000000614 0.000001420 0.000002867 0.000031589 0.000028190 0.000002228
 0.000002632 0.000010321 0.000008280
      20
 0.000000655 0.000000955 0.000002827 0.000025214 0.000005494 0.000021430
 0.000005759 0.000017644 0.000032814
      21
 0.000000759 0.000000573 0.000002773 0.000015684 0.000005599 0.000006708
 0.000013080 0.000023656 0.000058302
      22
 0.000000033 0.000000257 0.000002662 0.000006167 0.000003361 0.000005761
 0.000004910 0.000025242 0.000075783
      23
-0.000001058-0.000000060 0.000002402-0.000001012 0.000000347 0.000003802
-0.000001304 0.000020253 0.000077852
      24
-0.000001648-0.000000418 0.000001893-0.000001808-0.000004688 0.000001880
 0.000061889 0.000008552-0.000004485
      25
-0.000001610-0.000000696 0.000001160-0.000002260 0.000000667-0.000004641
 0.000031729-0.000007603-0.000004671
      26
-0.000001112-0.000000633 0.000000463-0.000001459 0.000000145-0.000002156
-0.000003068-0.000024113-0.000002959
      27
-0.000000380-0.000000239 0.000000090-0.000000524-0.000000080 0.000000475
-0.000030532-0.000036394-0.000000976
      28
-0.000000000-0.000000000 0.000000000-0.000000161-0.000000161 0.000001525
-0.000040924-0.000040924-0.000000131
      29
 0.000000068 0.000000068 0.000000422-0.000000074-0.000000074 0.000001629
 0.000006812 0.000006812-0.000000113
      30
 0.000000268 0.000000268 0.000001695 0.000000189 0.000000189 0.000001853
 0.000140563 0.000140563-0.000000062
      31
 0.000000586 0.000000586 0.000003683 0.000000619 0.000000619 0.000002079
 0.000333842 0.000333842 0.000000011
      32
 0.000000975 0.000000975 0.000005989 0.000001172 0.000001172 0.000002301
 0.000548361 0.000548361 0.000000092
      33
 0.000001343 0.000001343 0.000001750 0.000001750 0.000008236 0.000002395
 0.000741640 0.000741640 0.000000165
      34
 0.000001501 0.000001501 0.000002302 0.000002302 0.000010331 0.000001955
 0.000875391 0.000875391 0.000000216
      35
-0.000000012-0.000000012 0.000004080 0.000004080 0.000011569 0.000001315
 0.000923127 0.000923127 0.000000234
      36
-0.000000044 0.000000065 0.000004498 0.000006193 0.000010935 0.000000212
 0.000875060 0.000857720-0.000000182
      37
-0.000000118 0.000000168 0.000005138 0.000009473 0.000011061-0.000002212
 0.000743220 0.000680737-0.000001096
      38
-0.000000175 0.000000121 0.000008995 0.000004843 0.000013219-0.000003932
 0.000561561 0.000442698-0.000001587
      39
-0.000000142-0.000000015 0.000007590 0.000003284-0.000003056 0.000010945
-0.000000391 0.000373260 0.000206918
      40
 0.000000035 0.000000038 0.000005806 0.000001566 0.000001187 0.000003954
 0.000003641 0.000027591 0.000214597
      41
 0.000000362 0.000000444 0.000003919 0.000001179 0.000008248-0.000003890
 0.000010964-0.000066818 0.000104611
      42
 0.000000787 0.000002282 0.000000946 0.000002160 0.000016667 0.000020920
-0.000008027-0.000079323 0.000043331
      43
 0.000001213 0.000001098 0.000001073 0.000002665 0.000024305 0.000031877
-0.000006415-0.000039019 0.000017330
      44
 0.000001526 0.000000409 0.000000760 0.000001453 0.000027841 0.000042424
-0.000000889 0.000011699 0.000008965
      45
 0.000001641 0.000000185 0.000000533 0.000000414 0.000024819 0.000050737
 0.000034019 0.000004565 0.000004854
      46
 0.000001586 0.000000119 0.000000529 0.000002441 0.000026618 0.000049637
 0.000050095 0.000009646-0.000003769
      47
 0.000001414 0.000000054 0.000000488 0.000031425 0.000008789 0.000047116
 0.000077871 0.000021559-0.000007898
      48
 0.000000191 0.000001120 0.000000386 0.000037581 0.000044896 0.000018841
 0.000103270 0.000034570 0.000004388
      49
 0.000000461 0.000000739 0.000000310 0.000042743 0.000044224 0.000028106
 0.000042866 0.000024691 0.000124509
      50
 0.000000589 0.000000416 0.000000416 0.000044629 0.000044629 0.000026420
 0.000045902 0.000045901 0.000128575
      51
 0.000000525 0.000000635 0.000000369 0.000044212 0.000042738 0.000023115
 0.000044263 0.000122766 0.000034021
      52
 0.000000446 0.000000825 0.000000611 0.000041474 0.000037744 0.000012279
 0.000025898 0.000101151 0.000018207
      53
 0.000000527 0.000000853 0.000000983 0.000035614 0.000030384 0.000000973
 0.000002259 0.000059635 0.000002275
      54
 0.000000695 0.000000945 0.000001130 0.000027067-0.000006970 0.000021827
-0.000013216 0.000007029-0.000000560
      55
 0.000000420 0.000001886 0.000000847 0.000017263-0.000009836-0.000015403
 0.000013406-0.000029405 0.000027028
      56
 0.000000131 0.000000337 0.000003427-0.000008000 0.000007980-0.000007706
 0.000006332-0.000014201 0.000100156
      57
-0.000000085 0.000000004 0.000005407-0.000003433 0.000000806 0.000003034
 0.000001413 0.000078437 0.000224866
      58
-0.000000186 0.000000002 0.000007443 0.000001302-0.000003178 0.000010815
-0.000001130 0.000250218 0.000393019
      59
-0.000000181 0.000000136 0.000009132 0.000004263 0.000012790-0.000003791
 0.000581283 0.000473525-0.000001675
      60
-0.000000114 0.000000165 0.000004991 0.000009449 0.000010798-0.000002021
 0.000755310 0.000697244-0.000001036
      61
-0.000000042 0.000000061 0.000004464 0.000006058 0.000010967 0.000000289
 0.000878565 0.000862436-0.000000153
      62
-0.000000012-0.000000012 0.000004080 0.000004080 0.000011569 0.000001315
 0.000923127 0.000923127 0.000000234
      63
 0.000001641 0.000000185 0.000000533 0.000000414 0.000024819 0.000050737
 0.000034019 0.000004565 0.000004854
      64
 0.000001568 0.000000210 0.000000552 0.000000389 0.000025323 0.000052191
 0.000032715 0.000004890 0.000004568
      65
 0.000001356 0.000000271 0.000000628 0.000000322 0.000026715 0.000056255
 0.000029068 0.000005820 0.000003767
      66
 0.000001037 0.000000338 0.000000789 0.000000226 0.000028674 0.000062093
 0.000023812 0.000007218 0.000002613
      67
 0.000000661 0.000000383 0.000001031 0.000000121 0.000030785 0.000068529
 0.000017999 0.000008843 0.000001338
      68
 0.000000304 0.000000394 0.000001279 0.000032656 0.000000028 0.000074289
 0.000012782 0.000010374 0.000000193
      69
 0.000000046 0.000000385 0.000001439 0.000033962-0.000000035 0.000078255
 0.000011471 0.000009182-0.000000598
      70
-0.000000049 0.000000379 0.000001486 0.000034439-0.000000058 0.000079666
 0.000011869 0.000007900-0.000000879
      71
 0.000000589 0.000000416 0.000000416 0.000044629 0.000044629 0.000026420
 0.000045902 0.000045901 0.000128575
      72
 0.000000621 0.000000593 0.000000593 0.000044036 0.000044036 0.000024177
 0.000043086 0.000043086 0.000122300
      73
 0.000000740 0.000001052 0.000001052 0.000042382 0.000042382 0.000017891
 0.000035229 0.000035229 0.000104688
      74
 0.000000969 0.000001622 0.000001622 0.000040017 0.000040017 0.000008813
 0.000023956 0.000023955 0.000079169
      75
 0.000001279 0.000002129 0.000002129 0.000037426 0.000037426-0.000001258
 0.000011549 0.000011548 0.000050777
      76
 0.000001587 0.000002477 0.000002477 0.000035125 0.000035125-0.000010327
 0.000000460 0.000000460 0.000025157
      77
 0.000001807 0.000002660 0.000002660 0.000033550 0.000033550-0.000016600
-0.000007165-0.000007165 0.000007414
      78
 0.000001887 0.000002714 0.000002714 0.000032991 0.000032991-0.000018838
-0.000009877-0.000009877 0.000001080
 Norm of the difference between old and new effective charges:    0.00000000000000000000

 Norm of the difference between old and new force-constants:   0.00093588049179941352

 Broadening   0.0000
       1
-0.000000000-0.000000000 0.000000000-0.000000161-0.000000161 0.000001525
-0.000040924-0.000040924-0.000000131
       2
-0.000000407-0.000000255 0.000000097-0.000000555-0.000000071 0.000000394
-0.000029706-0.000036063-0.000001039
       3
-0.000001160-0.000000646 0.000000479-0.000001573 0.000000202-0.000002384
-0.000000096-0.000023255-0.000003102
       4
-0.000001603-0.000000657 0.000001085-0.000002404 0.000000776-0.000004784
 0.000037435-0.000007127-0.000004541
       5
-0.000001443-0.000000325 0.000001547-0.000001902-0.000004187 0.000001619
 0.000070211 0.000006934-0.000003061
       6
-0.000000471 0.000000022 0.000001701 0.000000074 0.000000889 0.000001977
 0.000003249 0.000015329 0.000088218
       7
 0.000000975 0.000000176 0.000001661 0.000010409 0.000002330 0.000000925
 0.000014979 0.000017471 0.000087507
       8
 0.000001635 0.000000136 0.000001577 0.000023117 0.000003375 0.000030940
-0.000001410 0.000015260 0.000070841
       9
 0.000000032 0.000001053 0.000001519 0.000035200 0.000002596 0.000048700
-0.000002989 0.000011607 0.000045552
      10
-0.000000032 0.000000476 0.000001493 0.000039582 0.000000853 0.000066480
 0.000000335 0.000008845 0.000019485
      11
-0.000000049 0.000000379 0.000001486 0.000034439-0.000000058 0.000079666
 0.000011869 0.000007900-0.000000879
      12
 0.000000199 0.000000446 0.000001620 0.000033702 0.000001194 0.000074737
 0.000008229 0.000008825-0.000003417
      13
 0.000000842 0.000000697 0.000002034 0.000032136 0.000062255 0.000002822
 0.000004018 0.000005841-0.000009434
      14
 0.000001149 0.000001634 0.000002525 0.000031123 0.000047850 0.000000640
-0.000001972-0.000015019 0.000002775
      15
 0.000001646 0.000002308 0.000002800 0.000031575 0.000037244-0.000007706
-0.000007986-0.000015660 0.000001343
      16
 0.000001887 0.000002714 0.000002714 0.000032991 0.000032991-0.000018838
-0.000009877-0.000009877 0.000001080
      17
 0.000001675 0.000002390 0.000002857 0.000033096 0.000033586-0.000011902
-0.000007089-0.000013455 0.000001639
      18
 0.000001112 0.000001925 0.000002888 0.000033641 0.000032267-0.000003943
-0.000002135 0.000004511-0.000008194
      19
 0.000000614 0.000001420 0.000002867 0.000031589 0.000028190 0.000002228
 0.000002632 0.000010321 0.000008280
      20
 0.000000655 0.000000955 0.000002827 0.000025214 0.000005494 0.000021430
 0.000005759 0.000017644 0.000032814
      21
 0.000000759 0.000000573 0.000002773 0.000015684 0.000005599 0.000006708
 0.000013080 0.000023656 0.000058302
      22
 0.000000033 0.000000257 0.000002662 0.000006167 0.000003361 0.000005761
 0.000004910 0.000025242 0.000075783
      23
-0.000001058-0.000000060 0.000002402-0.000001012 0.000000347 0.000003802
-0.000001304 0.000020253 0.000077852
      24
-0.000001648-0.000000418 0.000001893-0.000001808-0.000004688 0.000001880
 0.000061889 0.000008552-0.000004485
      25
-0.000001610-0.000000696 0.000001160-0.000002260 0.000000667-0.000004641
 0.000031729-0.000007603-0.000004671
      26
-0.000001112-0.000000633 0.000000463-0.000001459 0.000000145-0.000002156
-0.000003068-0.000024113-0.000002959
      27
-0.000000380-0.000000239 0.000000090-0.000000524-0.000000080 0.000000475
-0.000030532-0.000036394-0.000000976
      28
-0.000000000-0.000000000 0.000000000-0.000000161-0.000000161 0.000001525
-0.000040924-0.000040924-0.000000131
      29
 0.000000068 0.000000068 0.000000422-0.000000074-0.000000074 0.000001629
 0.000006812 0.000006812-0.000000113
      30
 0.000000268 0.000000268 0.000001695 0.000000189 0.000000189 0.000001853
 0.000140563 0.000140563-0.000000062
      31
 0.000000586 0.000000586 0.000003683 0.000000619 0.000000619 0.000002079
 0.000333842 0.000333842 0.000000011
      32
 0.000000975 0.000000975 0.000005989 0.000001172 0.000001172 0.000002301
 0.000548361 0.000548361 0.000000092
      33
 0.000001343 0.000001343 0.000001750 0.000001750 0.000008236 0.000002395
 0.000741640 0.000741640 0.000000165
      34
 0.000001501 0.000001501 0.000002302 0.000002302 0.000010331 0.000001955
 0.000875391 0.000875391 0.000000216
      35
-0.000000012-0.000000012 0.000004080 0.000004080 0.000011569 0.000001315
 0.000923127 0.000923127 0.000000234
      36
-0.000000044 0.000000065 0.000004498 0.000006193 0.000010935 0.000000212
 0.000875060 0.000857720-0.000000182
      37
-0.000000118 0.000000168 0.000005138 0.000009473 0.000011061-0.000002212
 0.000743220 0.000680737-0.000001096
      38
-0.000000175 0.000000121 0.000008995 0.000004843 0.000013219-0.000003932
 0.000561561 0.000442698-0.000001587
      39
-0.000000142-0.000000015 0.000007590 0.000003284-0.000003056 0.000010945
-0.000000391 0.000373260 0.000206918
      40
 0.000000035 0.000000038 0.000005806 0.000001566 0.000001187 0.000003954
 0.000003641 0.000027591 0.000214597
      41
 0.000000362 0.000000444 0.000003919 0.000001179 0.000008248-0.000003890
 0.000010964-0.000066818 0.000104611
      42
 0.000000787 0.000002282 0.000000946 0.000002160 0.000016667 0.000020920
-0.000008027-0.000079323 0.000043331
      43
 0.000001213 0.000001098 0.000001073 0.000002665 0.000024305 0.000031877
-0.000006415-0.000039019 0.000017330
      44
 0.000001526 0.000000409 0.000000760 0.000001453 0.000027841 0.000042424
-0.000000889 0.000011699 0.000008965
      45
 0.000001641 0.000000185 0.000000533 0.000000414 0.000024819 0.000050737
 0.000034019 0.000004565 0.000004854
      46
 0.000001586 0.000000119 0.000000529 0.000002441 0.000026618 0.000049637
 0.000050095 0.000009646-0.000003769
      47
 0.000001414 0.000000054 0.000000488 0.000031425 0.000008789 0.000047116
 0.000077871 0.000021559-0.000007898
      48
 0.000000191 0.000001120 0.000000386 0.000037581 0.000044896 0.000018841
 0.000103270 0.000034570 0.000004388
      49
 0.000000461 0.000000739 0.000000310 0.000042743 0.000044224 0.000028106
 0.000042866 0.000024691 0.000124509
      50
 0.000000589 0.000000416 0.000000416 0.000044629 0.000044629 0.000026420
 0.000045902 0.000045901 0.000128575
      51
 0.000000525 0.000000635 0.000000369 0.000044212 0.000042738 0.000023115
 0.000044263 0.000122766 0.000034021
      52
 0.000000446 0.000000825 0.000000611 0.000041474 0.000037744 0.000012279
 0.000025898 0.000101151 0.000018207
      53
 0.000000527 0.000000853 0.000000983 0.000035614 0.000030384 0.000000973
 0.000002259 0.000059635 0.000002275
      54
 0.000000695 0.000000945 0.000001130 0.000027067-0.000006970 0.000021827
-0.000013216 0.000007029-0.000000560
      55
 0.000000420 0.000001886 0.000000847 0.000017263-0.000009836-0.000015403
 0.000013406-0.000029405 0.000027028
      56
 0.000000131 0.000000337 0.000003427-0.000008000 0.000007980-0.000007706
 0.000006332-0.000014201 0.000100156
      57
-0.000000085 0.000000004 0.000005407-0.000003433 0.000000806 0.000003034
 0.000001413 0.000078437 0.000224866
      58
-0.000000186 0.000000002 0.000007443 0.000001302-0.000003178 0.000010815
-0.000001130 0.000250218 0.000393019
      59
-0.000000181 0.000000136 0.000009132 0.000004263 0.000012790-0.000003791
 0.000581283 0.000473525-0.000001675
      60
-0.000000114 0.000000165 0.000004991 0.000009449 0.000010798-0.000002021
 0.000755310 0.000697244-0.000001036
      61
-0.000000042 0.000000061 0.000004464 0.000006058 0.000010967 0.000000289
 0.000878565 0.000862436-0.000000153
      62
-0.000000012-0.000000012 0.000004080 0.000004080 0.000011569 0.000001315
 0.000923127 0.000923127 0.000000234
      63
 0.000001641 0.000000185 0.000000533 0.000000414 0.000024819 0.000050737
 0.000034019 0.000004565 0.000004854
      64
 0.000001568 0.000000210 0.000000552 0.000000389 0.000025323 0.000052191
 0.000032715 0.000004890 0.000004568
      65
 0.000001356 0.000000271 0.000000628 0.000000322 0.000026715 0.000056255
 0.000029068 0.000005820 0.000003767
      66
 0.000001037 0.000000338 0.000000789 0.000000226 0.000028674 0.000062093
 0.000023812 0.000007218 0.000002613
      67
 0.000000661 0.000000383 0.000001031 0.000000121 0.000030785 0.000068529
 0.000017999 0.000008843 0.000001338
      68
 0.000000304 0.000000394 0.000001279 0.000032656 0.000000028 0.000074289
 0.000012782 0.000010374 0.000000193
      69
 0.000000046 0.000000385 0.000001439 0.000033962-0.000000035 0.000078255
 0.000011471 0.000009182-0.000000598
      70
-0.000000049 0.000000379 0.000001486 0.000034439-0.000000058 0.000079666
 0.000011869 0.000007900-0.000000879
      71
 0.000000589 0.000000416 0.000000416 0.000044629 0.000044629 0.000026420
 0.000045902 0.000045901 0.000128575
      72
 0.000000621 0.000000593 0.000000593 0.000044036 0.000044036 0.000024177
 0.000043086 0.000043086 0.000122300
      73
 0.000000740 0.000001052 0.000001052 0.000042382 0.000042382 0.000017891
 0.000035229 0.000035229 0.000104688
      74
 0.000000969 0.000001622 0.000001622 0.000040017 0.000040017 0.000008813
 0.000023956 0.000023955 0.000079169
      75
 0.000001279 0.000002129 0.000002129 0.000037426 0.000037426-0.000001258
 0.000011549 0.000011548 0.000050777
      76
 0.000001587 0.000002477 0.000002477 0.000035125 0.000035125-0.000010327
 0.000000460 0.000000460 0.000025157
      77
 0.000001807 0.000002660 0.000002660 0.000033550 0.000033550-0.000016600
-0.000007165-0.000007165 0.000007414
      78
 0.000001887 0.000002714 0.000002714 0.000032991 0.000032991-0.000018838
-0.000009877-0.000009877 0.000001080
 
     MATDYN       :      7.30s CPU      7.78s WALL

 
   This run was terminated on:  22:51:19  17Mar2026            

=------------------------------------------------------------------------------=
   JOB DONE.
=------------------------------------------------------------------------------=
