--------------------------------------------------------------------------
Open MPI's OFI driver detected multiple equidistant NICs from the current process,
but had insufficient information to ensure MPI processes fairly pick a NIC for use.
This may negatively impact performance. A more modern PMIx server is necessary to
resolve this issue.

Note: This message is displayed only when the OFI component's verbosity level is
906455216 or higher.
--------------------------------------------------------------------------
--------------------------------------------------------------------------
WARNING: There was an error initializing an OpenFabrics device.

  Local host:   macloud2
  Local device: mlx4_0
--------------------------------------------------------------------------

     Program MATDYN v.6.7GPU starts on 28Jun2022 at  1:56:17 

     This program is part of the open-source Quantum ESPRESSO suite
     for quantum simulation of materials; please cite
         "P. Giannozzi et al., J. Phys.:Condens. Matter 21 395502 (2009);
         "P. Giannozzi et al., J. Phys.:Condens. Matter 29 465901 (2017);
         "P. Giannozzi et al., J. Chem. Phys. 152 154105 (2020);
          URL http://www.quantum-espresso.org", 
     in publications or presentations arising from this work. More details at
     http://www.quantum-espresso.org/quote

     Parallel version (MPI & OpenMP), running on       1 processor cores
     Number of MPI processes:                 1
     Threads/MPI process:                     1

     MPI processes distributed on     1 nodes
 mass for atomic type   1 not given; uses mass from file ifc.dat                                                                                                                                                                                                                                                         
 mass for atomic type   2 not given; uses mass from file ifc.dat                                                                                                                                                                                                                                                         
At line 1361 of file matdyn.f90
Fortran runtime warning: An array temporary was created
Norm of the difference between old and new effective charges:    0.00000000000000000000
At line 1550 of file matdyn.f90
Fortran runtime warning: An array temporary was created
At line 1550 of file matdyn.f90
Fortran runtime warning: An array temporary was created
At line 1604 of file matdyn.f90
Fortran runtime warning: An array temporary was created
At line 1604 of file matdyn.f90
Fortran runtime warning: An array temporary was created
Norm of the difference between old and new force-constants:   0.00233007395086925724
     Message from routine matdyn:
     Z* not found in file ifc.dat, TO-LO splitting at q=0 will be absent!
     Message from routine matdyn:
     Z* not found in file ifc.dat, TO-LO splitting at q=0 will be absent!

  Gamma lines for all modes [Rydberg] 

Norm of the difference between old and new effective charges:    0.00000000000000000000
Norm of the difference between old and new force-constants:   0.02534752740273600938
 Broadening   0.0000
       1
-0.000000000 0.000000000-0.000000000 0.000006101 0.000008278 0.000000290
 0.000350312 0.000373247-0.000014847
       2
 0.000000057 0.000000256 0.000001218 0.000008533 0.000009503 0.000000868
 0.000336523 0.000362934-0.000013719
       3
 0.000000243 0.000000756 0.000003292 0.000009480 0.000015632 0.000002603
 0.000309302 0.000325069-0.000010457
       4
 0.000000614 0.000000997 0.000003714 0.000008876 0.000021651 0.000005480
 0.000277610 0.000263169-0.000005384
       5
 0.000001121 0.000000757 0.000003040 0.000008322 0.000009442 0.000021931
 0.000224229 0.000205421 0.000001076
       6
 0.000001553 0.000000237 0.000002777 0.000007486 0.000014208 0.000014768
 0.000008507 0.000160375 0.000150954
       7
 0.000001646-0.000000238 0.000002777 0.000019393 0.000005852 0.000003066
 0.000016499 0.000095143 0.000100058
       8
-0.000000216 0.000001065 0.000002797 0.000023870 0.000003227 0.000024773
-0.000006437 0.000036106 0.000051883
       9
-0.000000476 0.000000850 0.000002810 0.000026327-0.000000046 0.000032957
-0.000005867-0.000010775 0.000005001
      10
-0.000000439 0.000000601 0.000002820 0.000026049-0.000002821 0.000040213
 0.000006077-0.000041056-0.000036653
      11
-0.000000410 0.000000534 0.000002823 0.000025037-0.000003907 0.000043638
 0.000014769-0.000051742-0.000055353
      12
-0.000000305 0.000000629 0.000002730 0.000027267-0.000002392 0.000043547
 0.000015775-0.000049160-0.000049527
      13
 0.000000012 0.000000886 0.000002560 0.000033042 0.000000832 0.000043484
 0.000017826-0.000040697-0.000035689
      14
 0.000001218 0.000000515 0.000002375 0.000040062 0.000043828 0.000003016
 0.000018555-0.000016195-0.000031733
      15
 0.000001498 0.000001098 0.000002127 0.000045694 0.000044591 0.000002689
 0.000015455-0.000006169-0.000017148
      16
 0.000001611 0.000001526 0.000001860 0.000048549 0.000044553 0.000004185
 0.000001242 0.000000739-0.000008230
      17
 0.000001613 0.000001345 0.000001981 0.000046061 0.000045170 0.000000289
-0.000002706 0.000028636-0.000010087
      18
 0.000001750 0.000001165 0.000002124 0.000042221 0.000043990 0.000002202
-0.000002745 0.000056647-0.000003335
      19
 0.000002107 0.000001016 0.000002324 0.000036836 0.000040946 0.000005895
 0.000001667 0.000085861 0.000015280
      20
 0.000002534 0.000000958 0.000002568 0.000030236 0.000009212 0.000036126
 0.000009694 0.000047422 0.000115941
      21
 0.000002676 0.000001050 0.000002813 0.000023253 0.000011378 0.000019172
 0.000029729 0.000091972 0.000146879
      22
 0.000002315 0.000001294 0.000003068 0.000016763 0.000012406 0.000027285
 0.000022087 0.000145120 0.000179317
      23
 0.000001589 0.000001571 0.000003542 0.000011304 0.000012772 0.000031154
 0.000201603 0.000013686 0.000213792
      24
 0.000000826 0.000001673 0.000004576 0.000012948 0.000007110 0.000028792
 0.000256042 0.000249864 0.000005139
      25
 0.000000286 0.000001446 0.000005347 0.000012874 0.000021567 0.000003932
 0.000303776 0.000285558-0.000002754
      26
 0.000000041 0.000000909 0.000003968 0.000011861 0.000013614 0.000001858
 0.000317565 0.000341080-0.000009177
      27
-0.000000007 0.000000289 0.000001300 0.000008076 0.000009666 0.000000674
 0.000341210 0.000364981-0.000013382
      28
-0.000000000 0.000000000-0.000000000 0.000006101 0.000008278 0.000000290
 0.000350312 0.000373247-0.000014847
      29
 0.000000890 0.000000381-0.000000113 0.000006071 0.000008646 0.000000376
 0.000340797 0.000371749-0.000013998
      30
 0.000003369 0.000001211-0.000000067 0.000005993 0.000009712 0.000000498
 0.000314118 0.000367540-0.000011617
      31
 0.000006915 0.000002412 0.000000411 0.000005895 0.000011321 0.000000267
 0.000275530 0.000361437-0.000008174
      32
 0.000010819 0.000003777 0.000001791 0.000005787 0.000013165-0.000000870
 0.000354661 0.000232668-0.000004347
      33
 0.000014419 0.000005138 0.000005403 0.000014759 0.000004658-0.000003396
 0.000348589 0.000194032-0.000000894
      34
 0.000017519 0.000006635 0.000004857 0.000015257 0.000008241-0.000007057
 0.000344427 0.000167288 0.000001497
      35
 0.000012219 0.000035206-0.000001145-0.000000430 0.000010415-0.000009228
 0.000342953 0.000157742 0.000002351
      36
-0.000001000 0.000018488-0.000000448 0.000027249 0.000011028-0.000008192
 0.000331941 0.000154642 0.000002691
      37
-0.000000679-0.000000403 0.000022640 0.000015417 0.000014271-0.000005300
 0.000296430 0.000150665 0.000003749
      38
-0.000000307-0.000000213 0.000008607 0.000017583 0.000016919-0.000001118
 0.000249549 0.000138780 0.000005604
      39
 0.000000088 0.000000051 0.000005254 0.000012064 0.000003658 0.000012738
 0.000200417 0.000008267 0.000116049
      40
 0.000000459 0.000000297 0.000003603 0.000006717 0.000008413 0.000005557
 0.000011588 0.000150427 0.000087065
      41
 0.000000765 0.000000441 0.000002213 0.000002673 0.000012724-0.000001583
 0.000015224 0.000101873 0.000056070
      42
 0.000000983 0.000000972 0.000000457-0.000000112 0.000016333 0.000018700
-0.000006613 0.000058488 0.000026287
      43
 0.000001119-0.000000037 0.000000386-0.000001994 0.000019058 0.000021547
-0.000007804 0.000024349-0.000000150
      44
 0.000001187-0.000000702 0.000000301-0.000003163 0.000020717 0.000023442
-0.000003849 0.000003169-0.000022324
      45
 0.000001208-0.000000935 0.000000265-0.000003574 0.000021235 0.000024144
 0.000000455-0.000002828-0.000034146
      46
 0.000001217-0.000000808 0.000000359-0.000002376 0.000023405 0.000026054
-0.000000488 0.000001325-0.000034110
      47
 0.000001214-0.000000505 0.000000565 0.000029282-0.000000001 0.000031024
-0.000003030 0.000012002-0.000033252
      48
-0.000000223 0.000001135 0.000000740 0.000037122 0.000037031 0.000000693
-0.000007884 0.000026284-0.000029977
      49
-0.000000132 0.000000953 0.000000838 0.000044588 0.000041406-0.000003156
-0.000014919-0.000020903 0.000038233
      50
-0.000000218 0.000001074 0.000000623 0.000049921 0.000041279-0.000013347
-0.000019165-0.000006494 0.000042502
      51
 0.000000123 0.000000868 0.000000985 0.000046996 0.000041814-0.000006749
-0.000003201-0.000031584 0.000048266
      52
 0.000000713 0.000001112 0.000001069 0.000042949 0.000041162-0.000005272
 0.000003808 0.000057062-0.000032104
      53
 0.000001472 0.000001290 0.000001272 0.000037987 0.000039043-0.000003625
 0.000011888 0.000070976-0.000023813
      54
 0.000001346 0.000002297 0.000001469 0.000032353-0.000000800 0.000035415
 0.000018482 0.000091944-0.000007038
      55
 0.000001249 0.000003089 0.000001518 0.000026259 0.000003447 0.000022058
 0.000030509 0.000120976 0.000016829
      56
 0.000000996 0.000001334 0.000003778 0.000008980 0.000019854 0.000022579
 0.000024793 0.000157456 0.000045152
      57
 0.000000613 0.000000941 0.000004338 0.000015348 0.000013268 0.000021152
 0.000018865 0.000199031 0.000074663
      58
 0.000000147 0.000000459 0.000004850 0.000021837 0.000019118 0.000006711
 0.000242014 0.000013324 0.000102243
      59
-0.000000335 0.000000032 0.000005870 0.000027609 0.000016954 0.000000572
 0.000281987 0.000125530 0.000008657
      60
-0.000000756-0.000000252 0.000031923 0.000008913 0.000013504-0.000004560
 0.000314465 0.000143067 0.000005183
      61
-0.000001043 0.000034422-0.000000391 0.000011535 0.000010980-0.000008009
 0.000335621 0.000154006 0.000003062
      62
 0.000012219 0.000035206-0.000001145-0.000000430 0.000010415-0.000009228
 0.000342953 0.000157742 0.000002351
      63
 0.000001208-0.000000935 0.000000265-0.000003574 0.000021235 0.000024144
 0.000000455-0.000002828-0.000034146
      64
 0.000001149-0.000000841 0.000000423-0.000003582 0.000021395 0.000025177
 0.000001066-0.000005396-0.000035076
      65
 0.000000970-0.000000587 0.000000860-0.000003607 0.000021848 0.000028037
 0.000002827-0.000012536-0.000037719
      66
 0.000000680-0.000000250 0.000001472 0.000022487-0.000003626 0.000032077
 0.000005508-0.000022689-0.000041667
      67
 0.000000316 0.000000080 0.000002098 0.000023307-0.000003729 0.000036424
 0.000008681-0.000033659-0.000046297
      68
-0.000000045 0.000000335 0.000002566 0.000024108-0.000003812 0.000040209
 0.000011729-0.000043189-0.000050782
      69
-0.000000312 0.000000485 0.000002782 0.000024766-0.000003881 0.000042748
 0.000013952-0.000049535-0.000054111
      70
-0.000000410 0.000000534 0.000002823 0.000025037-0.000003907 0.000043638
 0.000014769-0.000051742-0.000055353
      71
-0.000000218 0.000001074 0.000000623 0.000049921 0.000041279-0.000013347
-0.000019165-0.000006494 0.000042502
      72
-0.000000136 0.000001074 0.000000655 0.000049891 0.000041449-0.000012968
-0.000017660-0.000006126 0.000039989
      73
 0.000000019 0.000001152 0.000000741 0.000049730 0.000041929-0.000011632
-0.000013719-0.000005121 0.000033050
      74
 0.000000280 0.000001305 0.000000884 0.000049457 0.000042612-0.000008981
-0.000008752-0.000003672 0.000022988
      75
 0.000000661 0.000001505 0.000001078 0.000049126 0.000043346-0.000005046
-0.000004244-0.000002066 0.000011730
      76
 0.000001098 0.000001290 0.000001696 0.000048818 0.000043982-0.000000642
-0.000001053-0.000000621 0.000001492
      77
 0.000001461 0.000001461 0.000001825 0.000048611 0.000044405 0.000002853
 0.000000701 0.000000379-0.000005655
      78
 0.000001611 0.000001526 0.000001860 0.000048549 0.000044553 0.000004185
 0.000001242 0.000000739-0.000008230
Norm of the difference between old and new effective charges:    0.00000000000000000000
Norm of the difference between old and new force-constants:   0.02534752740273600938
 Broadening   0.0000
       1
-0.000000000 0.000000000-0.000000000 0.000006101 0.000008278 0.000000290
 0.000350312 0.000373247-0.000014847
       2
 0.000000057 0.000000256 0.000001218 0.000008533 0.000009503 0.000000868
 0.000336523 0.000362934-0.000013719
       3
 0.000000243 0.000000756 0.000003292 0.000009480 0.000015632 0.000002603
 0.000309302 0.000325069-0.000010457
       4
 0.000000614 0.000000997 0.000003714 0.000008876 0.000021651 0.000005480
 0.000277610 0.000263169-0.000005384
       5
 0.000001121 0.000000757 0.000003040 0.000008322 0.000009442 0.000021931
 0.000224229 0.000205421 0.000001076
       6
 0.000001553 0.000000237 0.000002777 0.000007486 0.000014208 0.000014768
 0.000008507 0.000160375 0.000150954
       7
 0.000001646-0.000000238 0.000002777 0.000019393 0.000005852 0.000003066
 0.000016499 0.000095143 0.000100058
       8
-0.000000216 0.000001065 0.000002797 0.000023870 0.000003227 0.000024773
-0.000006437 0.000036106 0.000051883
       9
-0.000000476 0.000000850 0.000002810 0.000026327-0.000000046 0.000032957
-0.000005867-0.000010775 0.000005001
      10
-0.000000439 0.000000601 0.000002820 0.000026049-0.000002821 0.000040213
 0.000006077-0.000041056-0.000036653
      11
-0.000000410 0.000000534 0.000002823 0.000025037-0.000003907 0.000043638
 0.000014769-0.000051742-0.000055353
      12
-0.000000305 0.000000629 0.000002730 0.000027267-0.000002392 0.000043547
 0.000015775-0.000049160-0.000049527
      13
 0.000000012 0.000000886 0.000002560 0.000033042 0.000000832 0.000043484
 0.000017826-0.000040697-0.000035689
      14
 0.000001218 0.000000515 0.000002375 0.000040062 0.000043828 0.000003016
 0.000018555-0.000016195-0.000031733
      15
 0.000001498 0.000001098 0.000002127 0.000045694 0.000044591 0.000002689
 0.000015455-0.000006169-0.000017148
      16
 0.000001611 0.000001526 0.000001860 0.000048549 0.000044553 0.000004185
 0.000001242 0.000000739-0.000008230
      17
 0.000001613 0.000001345 0.000001981 0.000046061 0.000045170 0.000000289
-0.000002706 0.000028636-0.000010087
      18
 0.000001750 0.000001165 0.000002124 0.000042221 0.000043990 0.000002202
-0.000002745 0.000056647-0.000003335
      19
 0.000002107 0.000001016 0.000002324 0.000036836 0.000040946 0.000005895
 0.000001667 0.000085861 0.000015280
      20
 0.000002534 0.000000958 0.000002568 0.000030236 0.000009212 0.000036126
 0.000009694 0.000047422 0.000115941
      21
 0.000002676 0.000001050 0.000002813 0.000023253 0.000011378 0.000019172
 0.000029729 0.000091972 0.000146879
      22
 0.000002315 0.000001294 0.000003068 0.000016763 0.000012406 0.000027285
 0.000022087 0.000145120 0.000179317
      23
 0.000001589 0.000001571 0.000003542 0.000011304 0.000012772 0.000031154
 0.000201603 0.000013686 0.000213792
      24
 0.000000826 0.000001673 0.000004576 0.000012948 0.000007110 0.000028792
 0.000256042 0.000249864 0.000005139
      25
 0.000000286 0.000001446 0.000005347 0.000012874 0.000021567 0.000003932
 0.000303776 0.000285558-0.000002754
      26
 0.000000041 0.000000909 0.000003968 0.000011861 0.000013614 0.000001858
 0.000317565 0.000341080-0.000009177
      27
-0.000000007 0.000000289 0.000001300 0.000008076 0.000009666 0.000000674
 0.000341210 0.000364981-0.000013382
      28
-0.000000000 0.000000000-0.000000000 0.000006101 0.000008278 0.000000290
 0.000350312 0.000373247-0.000014847
      29
 0.000000890 0.000000381-0.000000113 0.000006071 0.000008646 0.000000376
 0.000340797 0.000371749-0.000013998
      30
 0.000003369 0.000001211-0.000000067 0.000005993 0.000009712 0.000000498
 0.000314118 0.000367540-0.000011617
      31
 0.000006915 0.000002412 0.000000411 0.000005895 0.000011321 0.000000267
 0.000275530 0.000361437-0.000008174
      32
 0.000010819 0.000003777 0.000001791 0.000005787 0.000013165-0.000000870
 0.000354661 0.000232668-0.000004347
      33
 0.000014419 0.000005138 0.000005403 0.000014759 0.000004658-0.000003396
 0.000348589 0.000194032-0.000000894
      34
 0.000017519 0.000006635 0.000004857 0.000015257 0.000008241-0.000007057
 0.000344427 0.000167288 0.000001497
      35
 0.000012219 0.000035206-0.000001145-0.000000430 0.000010415-0.000009228
 0.000342953 0.000157742 0.000002351
      36
-0.000001000 0.000018488-0.000000448 0.000027249 0.000011028-0.000008192
 0.000331941 0.000154642 0.000002691
      37
-0.000000679-0.000000403 0.000022640 0.000015417 0.000014271-0.000005300
 0.000296430 0.000150665 0.000003749
      38
-0.000000307-0.000000213 0.000008607 0.000017583 0.000016919-0.000001118
 0.000249549 0.000138780 0.000005604
      39
 0.000000088 0.000000051 0.000005254 0.000012064 0.000003658 0.000012738
 0.000200417 0.000008267 0.000116049
      40
 0.000000459 0.000000297 0.000003603 0.000006717 0.000008413 0.000005557
 0.000011588 0.000150427 0.000087065
      41
 0.000000765 0.000000441 0.000002213 0.000002673 0.000012724-0.000001583
 0.000015224 0.000101873 0.000056070
      42
 0.000000983 0.000000972 0.000000457-0.000000112 0.000016333 0.000018700
-0.000006613 0.000058488 0.000026287
      43
 0.000001119-0.000000037 0.000000386-0.000001994 0.000019058 0.000021547
-0.000007804 0.000024349-0.000000150
      44
 0.000001187-0.000000702 0.000000301-0.000003163 0.000020717 0.000023442
-0.000003849 0.000003169-0.000022324
      45
 0.000001208-0.000000935 0.000000265-0.000003574 0.000021235 0.000024144
 0.000000455-0.000002828-0.000034146
      46
 0.000001217-0.000000808 0.000000359-0.000002376 0.000023405 0.000026054
-0.000000488 0.000001325-0.000034110
      47
 0.000001214-0.000000505 0.000000565 0.000029282-0.000000001 0.000031024
-0.000003030 0.000012002-0.000033252
      48
-0.000000223 0.000001135 0.000000740 0.000037122 0.000037031 0.000000693
-0.000007884 0.000026284-0.000029977
      49
-0.000000132 0.000000953 0.000000838 0.000044588 0.000041406-0.000003156
-0.000014919-0.000020903 0.000038233
      50
-0.000000218 0.000001074 0.000000623 0.000049921 0.000041279-0.000013347
-0.000019165-0.000006494 0.000042502
      51
 0.000000123 0.000000868 0.000000985 0.000046996 0.000041814-0.000006749
-0.000003201-0.000031584 0.000048266
      52
 0.000000713 0.000001112 0.000001069 0.000042949 0.000041162-0.000005272
 0.000003808 0.000057062-0.000032104
      53
 0.000001472 0.000001290 0.000001272 0.000037987 0.000039043-0.000003625
 0.000011888 0.000070976-0.000023813
      54
 0.000001346 0.000002297 0.000001469 0.000032353-0.000000800 0.000035415
 0.000018482 0.000091944-0.000007038
      55
 0.000001249 0.000003089 0.000001518 0.000026259 0.000003447 0.000022058
 0.000030509 0.000120976 0.000016829
      56
 0.000000996 0.000001334 0.000003778 0.000008980 0.000019854 0.000022579
 0.000024793 0.000157456 0.000045152
      57
 0.000000613 0.000000941 0.000004338 0.000015348 0.000013268 0.000021152
 0.000018865 0.000199031 0.000074663
      58
 0.000000147 0.000000459 0.000004850 0.000021837 0.000019118 0.000006711
 0.000242014 0.000013324 0.000102243
      59
-0.000000335 0.000000032 0.000005870 0.000027609 0.000016954 0.000000572
 0.000281987 0.000125530 0.000008657
      60
-0.000000756-0.000000252 0.000031923 0.000008913 0.000013504-0.000004560
 0.000314465 0.000143067 0.000005183
      61
-0.000001043 0.000034422-0.000000391 0.000011535 0.000010980-0.000008009
 0.000335621 0.000154006 0.000003062
      62
 0.000012219 0.000035206-0.000001145-0.000000430 0.000010415-0.000009228
 0.000342953 0.000157742 0.000002351
      63
 0.000001208-0.000000935 0.000000265-0.000003574 0.000021235 0.000024144
 0.000000455-0.000002828-0.000034146
      64
 0.000001149-0.000000841 0.000000423-0.000003582 0.000021395 0.000025177
 0.000001066-0.000005396-0.000035076
      65
 0.000000970-0.000000587 0.000000860-0.000003607 0.000021848 0.000028037
 0.000002827-0.000012536-0.000037719
      66
 0.000000680-0.000000250 0.000001472 0.000022487-0.000003626 0.000032077
 0.000005508-0.000022689-0.000041667
      67
 0.000000316 0.000000080 0.000002098 0.000023307-0.000003729 0.000036424
 0.000008681-0.000033659-0.000046297
      68
-0.000000045 0.000000335 0.000002566 0.000024108-0.000003812 0.000040209
 0.000011729-0.000043189-0.000050782
      69
-0.000000312 0.000000485 0.000002782 0.000024766-0.000003881 0.000042748
 0.000013952-0.000049535-0.000054111
      70
-0.000000410 0.000000534 0.000002823 0.000025037-0.000003907 0.000043638
 0.000014769-0.000051742-0.000055353
      71
-0.000000218 0.000001074 0.000000623 0.000049921 0.000041279-0.000013347
-0.000019165-0.000006494 0.000042502
      72
-0.000000136 0.000001074 0.000000655 0.000049891 0.000041449-0.000012968
-0.000017660-0.000006126 0.000039989
      73
 0.000000019 0.000001152 0.000000741 0.000049730 0.000041929-0.000011632
-0.000013719-0.000005121 0.000033050
      74
 0.000000280 0.000001305 0.000000884 0.000049457 0.000042612-0.000008981
-0.000008752-0.000003672 0.000022988
      75
 0.000000661 0.000001505 0.000001078 0.000049126 0.000043346-0.000005046
-0.000004244-0.000002066 0.000011730
      76
 0.000001098 0.000001290 0.000001696 0.000048818 0.000043982-0.000000642
-0.000001053-0.000000621 0.000001492
      77
 0.000001461 0.000001461 0.000001825 0.000048611 0.000044405 0.000002853
 0.000000701 0.000000379-0.000005655
      78
 0.000001611 0.000001526 0.000001860 0.000048549 0.000044553 0.000004185
 0.000001242 0.000000739-0.000008230
Norm of the difference between old and new effective charges:    0.00000000000000000000
Norm of the difference between old and new force-constants:   0.02534752740273600938
 Broadening   0.0000
       1
-0.000000000 0.000000000-0.000000000 0.000006101 0.000008278 0.000000290
 0.000350312 0.000373247-0.000014847
       2
 0.000000057 0.000000256 0.000001218 0.000008533 0.000009503 0.000000868
 0.000336523 0.000362934-0.000013719
       3
 0.000000243 0.000000756 0.000003292 0.000009480 0.000015632 0.000002603
 0.000309302 0.000325069-0.000010457
       4
 0.000000614 0.000000997 0.000003714 0.000008876 0.000021651 0.000005480
 0.000277610 0.000263169-0.000005384
       5
 0.000001121 0.000000757 0.000003040 0.000008322 0.000009442 0.000021931
 0.000224229 0.000205421 0.000001076
       6
 0.000001553 0.000000237 0.000002777 0.000007486 0.000014208 0.000014768
 0.000008507 0.000160375 0.000150954
       7
 0.000001646-0.000000238 0.000002777 0.000019393 0.000005852 0.000003066
 0.000016499 0.000095143 0.000100058
       8
-0.000000216 0.000001065 0.000002797 0.000023870 0.000003227 0.000024773
-0.000006437 0.000036106 0.000051883
       9
-0.000000476 0.000000850 0.000002810 0.000026327-0.000000046 0.000032957
-0.000005867-0.000010775 0.000005001
      10
-0.000000439 0.000000601 0.000002820 0.000026049-0.000002821 0.000040213
 0.000006077-0.000041056-0.000036653
      11
-0.000000410 0.000000534 0.000002823 0.000025037-0.000003907 0.000043638
 0.000014769-0.000051742-0.000055353
      12
-0.000000305 0.000000629 0.000002730 0.000027267-0.000002392 0.000043547
 0.000015775-0.000049160-0.000049527
      13
 0.000000012 0.000000886 0.000002560 0.000033042 0.000000832 0.000043484
 0.000017826-0.000040697-0.000035689
      14
 0.000001218 0.000000515 0.000002375 0.000040062 0.000043828 0.000003016
 0.000018555-0.000016195-0.000031733
      15
 0.000001498 0.000001098 0.000002127 0.000045694 0.000044591 0.000002689
 0.000015455-0.000006169-0.000017148
      16
 0.000001611 0.000001526 0.000001860 0.000048549 0.000044553 0.000004185
 0.000001242 0.000000739-0.000008230
      17
 0.000001613 0.000001345 0.000001981 0.000046061 0.000045170 0.000000289
-0.000002706 0.000028636-0.000010087
      18
 0.000001750 0.000001165 0.000002124 0.000042221 0.000043990 0.000002202
-0.000002745 0.000056647-0.000003335
      19
 0.000002107 0.000001016 0.000002324 0.000036836 0.000040946 0.000005895
 0.000001667 0.000085861 0.000015280
      20
 0.000002534 0.000000958 0.000002568 0.000030236 0.000009212 0.000036126
 0.000009694 0.000047422 0.000115941
      21
 0.000002676 0.000001050 0.000002813 0.000023253 0.000011378 0.000019172
 0.000029729 0.000091972 0.000146879
      22
 0.000002315 0.000001294 0.000003068 0.000016763 0.000012406 0.000027285
 0.000022087 0.000145120 0.000179317
      23
 0.000001589 0.000001571 0.000003542 0.000011304 0.000012772 0.000031154
 0.000201603 0.000013686 0.000213792
      24
 0.000000826 0.000001673 0.000004576 0.000012948 0.000007110 0.000028792
 0.000256042 0.000249864 0.000005139
      25
 0.000000286 0.000001446 0.000005347 0.000012874 0.000021567 0.000003932
 0.000303776 0.000285558-0.000002754
      26
 0.000000041 0.000000909 0.000003968 0.000011861 0.000013614 0.000001858
 0.000317565 0.000341080-0.000009177
      27
-0.000000007 0.000000289 0.000001300 0.000008076 0.000009666 0.000000674
 0.000341210 0.000364981-0.000013382
      28
-0.000000000 0.000000000-0.000000000 0.000006101 0.000008278 0.000000290
 0.000350312 0.000373247-0.000014847
      29
 0.000000890 0.000000381-0.000000113 0.000006071 0.000008646 0.000000376
 0.000340797 0.000371749-0.000013998
      30
 0.000003369 0.000001211-0.000000067 0.000005993 0.000009712 0.000000498
 0.000314118 0.000367540-0.000011617
      31
 0.000006915 0.000002412 0.000000411 0.000005895 0.000011321 0.000000267
 0.000275530 0.000361437-0.000008174
      32
 0.000010819 0.000003777 0.000001791 0.000005787 0.000013165-0.000000870
 0.000354661 0.000232668-0.000004347
      33
 0.000014419 0.000005138 0.000005403 0.000014759 0.000004658-0.000003396
 0.000348589 0.000194032-0.000000894
      34
 0.000017519 0.000006635 0.000004857 0.000015257 0.000008241-0.000007057
 0.000344427 0.000167288 0.000001497
      35
 0.000012219 0.000035206-0.000001145-0.000000430 0.000010415-0.000009228
 0.000342953 0.000157742 0.000002351
      36
-0.000001000 0.000018488-0.000000448 0.000027249 0.000011028-0.000008192
 0.000331941 0.000154642 0.000002691
      37
-0.000000679-0.000000403 0.000022640 0.000015417 0.000014271-0.000005300
 0.000296430 0.000150665 0.000003749
      38
-0.000000307-0.000000213 0.000008607 0.000017583 0.000016919-0.000001118
 0.000249549 0.000138780 0.000005604
      39
 0.000000088 0.000000051 0.000005254 0.000012064 0.000003658 0.000012738
 0.000200417 0.000008267 0.000116049
      40
 0.000000459 0.000000297 0.000003603 0.000006717 0.000008413 0.000005557
 0.000011588 0.000150427 0.000087065
      41
 0.000000765 0.000000441 0.000002213 0.000002673 0.000012724-0.000001583
 0.000015224 0.000101873 0.000056070
      42
 0.000000983 0.000000972 0.000000457-0.000000112 0.000016333 0.000018700
-0.000006613 0.000058488 0.000026287
      43
 0.000001119-0.000000037 0.000000386-0.000001994 0.000019058 0.000021547
-0.000007804 0.000024349-0.000000150
      44
 0.000001187-0.000000702 0.000000301-0.000003163 0.000020717 0.000023442
-0.000003849 0.000003169-0.000022324
      45
 0.000001208-0.000000935 0.000000265-0.000003574 0.000021235 0.000024144
 0.000000455-0.000002828-0.000034146
      46
 0.000001217-0.000000808 0.000000359-0.000002376 0.000023405 0.000026054
-0.000000488 0.000001325-0.000034110
      47
 0.000001214-0.000000505 0.000000565 0.000029282-0.000000001 0.000031024
-0.000003030 0.000012002-0.000033252
      48
-0.000000223 0.000001135 0.000000740 0.000037122 0.000037031 0.000000693
-0.000007884 0.000026284-0.000029977
      49
-0.000000132 0.000000953 0.000000838 0.000044588 0.000041406-0.000003156
-0.000014919-0.000020903 0.000038233
      50
-0.000000218 0.000001074 0.000000623 0.000049921 0.000041279-0.000013347
-0.000019165-0.000006494 0.000042502
      51
 0.000000123 0.000000868 0.000000985 0.000046996 0.000041814-0.000006749
-0.000003201-0.000031584 0.000048266
      52
 0.000000713 0.000001112 0.000001069 0.000042949 0.000041162-0.000005272
 0.000003808 0.000057062-0.000032104
      53
 0.000001472 0.000001290 0.000001272 0.000037987 0.000039043-0.000003625
 0.000011888 0.000070976-0.000023813
      54
 0.000001346 0.000002297 0.000001469 0.000032353-0.000000800 0.000035415
 0.000018482 0.000091944-0.000007038
      55
 0.000001249 0.000003089 0.000001518 0.000026259 0.000003447 0.000022058
 0.000030509 0.000120976 0.000016829
      56
 0.000000996 0.000001334 0.000003778 0.000008980 0.000019854 0.000022579
 0.000024793 0.000157456 0.000045152
      57
 0.000000613 0.000000941 0.000004338 0.000015348 0.000013268 0.000021152
 0.000018865 0.000199031 0.000074663
      58
 0.000000147 0.000000459 0.000004850 0.000021837 0.000019118 0.000006711
 0.000242014 0.000013324 0.000102243
      59
-0.000000335 0.000000032 0.000005870 0.000027609 0.000016954 0.000000572
 0.000281987 0.000125530 0.000008657
      60
-0.000000756-0.000000252 0.000031923 0.000008913 0.000013504-0.000004560
 0.000314465 0.000143067 0.000005183
      61
-0.000001043 0.000034422-0.000000391 0.000011535 0.000010980-0.000008009
 0.000335621 0.000154006 0.000003062
      62
 0.000012219 0.000035206-0.000001145-0.000000430 0.000010415-0.000009228
 0.000342953 0.000157742 0.000002351
      63
 0.000001208-0.000000935 0.000000265-0.000003574 0.000021235 0.000024144
 0.000000455-0.000002828-0.000034146
      64
 0.000001149-0.000000841 0.000000423-0.000003582 0.000021395 0.000025177
 0.000001066-0.000005396-0.000035076
      65
 0.000000970-0.000000587 0.000000860-0.000003607 0.000021848 0.000028037
 0.000002827-0.000012536-0.000037719
      66
 0.000000680-0.000000250 0.000001472 0.000022487-0.000003626 0.000032077
 0.000005508-0.000022689-0.000041667
      67
 0.000000316 0.000000080 0.000002098 0.000023307-0.000003729 0.000036424
 0.000008681-0.000033659-0.000046297
      68
-0.000000045 0.000000335 0.000002566 0.000024108-0.000003812 0.000040209
 0.000011729-0.000043189-0.000050782
      69
-0.000000312 0.000000485 0.000002782 0.000024766-0.000003881 0.000042748
 0.000013952-0.000049535-0.000054111
      70
-0.000000410 0.000000534 0.000002823 0.000025037-0.000003907 0.000043638
 0.000014769-0.000051742-0.000055353
      71
-0.000000218 0.000001074 0.000000623 0.000049921 0.000041279-0.000013347
-0.000019165-0.000006494 0.000042502
      72
-0.000000136 0.000001074 0.000000655 0.000049891 0.000041449-0.000012968
-0.000017660-0.000006126 0.000039989
      73
 0.000000019 0.000001152 0.000000741 0.000049730 0.000041929-0.000011632
-0.000013719-0.000005121 0.000033050
      74
 0.000000280 0.000001305 0.000000884 0.000049457 0.000042612-0.000008981
-0.000008752-0.000003672 0.000022988
      75
 0.000000661 0.000001505 0.000001078 0.000049126 0.000043346-0.000005046
-0.000004244-0.000002066 0.000011730
      76
 0.000001098 0.000001290 0.000001696 0.000048818 0.000043982-0.000000642
-0.000001053-0.000000621 0.000001492
      77
 0.000001461 0.000001461 0.000001825 0.000048611 0.000044405 0.000002853
 0.000000701 0.000000379-0.000005655
      78
 0.000001611 0.000001526 0.000001860 0.000048549 0.000044553 0.000004185
 0.000001242 0.000000739-0.000008230
Norm of the difference between old and new effective charges:    0.00000000000000000000
Norm of the difference between old and new force-constants:   0.02534752740273600938
 Broadening   0.0000
       1
-0.000000000 0.000000000-0.000000000 0.000006101 0.000008278 0.000000290
 0.000350312 0.000373247-0.000014847
       2
 0.000000057 0.000000256 0.000001218 0.000008533 0.000009503 0.000000868
 0.000336523 0.000362934-0.000013719
       3
 0.000000243 0.000000756 0.000003292 0.000009480 0.000015632 0.000002603
 0.000309302 0.000325069-0.000010457
       4
 0.000000614 0.000000997 0.000003714 0.000008876 0.000021651 0.000005480
 0.000277610 0.000263169-0.000005384
       5
 0.000001121 0.000000757 0.000003040 0.000008322 0.000009442 0.000021931
 0.000224229 0.000205421 0.000001076
       6
 0.000001553 0.000000237 0.000002777 0.000007486 0.000014208 0.000014768
 0.000008507 0.000160375 0.000150954
       7
 0.000001646-0.000000238 0.000002777 0.000019393 0.000005852 0.000003066
 0.000016499 0.000095143 0.000100058
       8
-0.000000216 0.000001065 0.000002797 0.000023870 0.000003227 0.000024773
-0.000006437 0.000036106 0.000051883
       9
-0.000000476 0.000000850 0.000002810 0.000026327-0.000000046 0.000032957
-0.000005867-0.000010775 0.000005001
      10
-0.000000439 0.000000601 0.000002820 0.000026049-0.000002821 0.000040213
 0.000006077-0.000041056-0.000036653
      11
-0.000000410 0.000000534 0.000002823 0.000025037-0.000003907 0.000043638
 0.000014769-0.000051742-0.000055353
      12
-0.000000305 0.000000629 0.000002730 0.000027267-0.000002392 0.000043547
 0.000015775-0.000049160-0.000049527
      13
 0.000000012 0.000000886 0.000002560 0.000033042 0.000000832 0.000043484
 0.000017826-0.000040697-0.000035689
      14
 0.000001218 0.000000515 0.000002375 0.000040062 0.000043828 0.000003016
 0.000018555-0.000016195-0.000031733
      15
 0.000001498 0.000001098 0.000002127 0.000045694 0.000044591 0.000002689
 0.000015455-0.000006169-0.000017148
      16
 0.000001611 0.000001526 0.000001860 0.000048549 0.000044553 0.000004185
 0.000001242 0.000000739-0.000008230
      17
 0.000001613 0.000001345 0.000001981 0.000046061 0.000045170 0.000000289
-0.000002706 0.000028636-0.000010087
      18
 0.000001750 0.000001165 0.000002124 0.000042221 0.000043990 0.000002202
-0.000002745 0.000056647-0.000003335
      19
 0.000002107 0.000001016 0.000002324 0.000036836 0.000040946 0.000005895
 0.000001667 0.000085861 0.000015280
      20
 0.000002534 0.000000958 0.000002568 0.000030236 0.000009212 0.000036126
 0.000009694 0.000047422 0.000115941
      21
 0.000002676 0.000001050 0.000002813 0.000023253 0.000011378 0.000019172
 0.000029729 0.000091972 0.000146879
      22
 0.000002315 0.000001294 0.000003068 0.000016763 0.000012406 0.000027285
 0.000022087 0.000145120 0.000179317
      23
 0.000001589 0.000001571 0.000003542 0.000011304 0.000012772 0.000031154
 0.000201603 0.000013686 0.000213792
      24
 0.000000826 0.000001673 0.000004576 0.000012948 0.000007110 0.000028792
 0.000256042 0.000249864 0.000005139
      25
 0.000000286 0.000001446 0.000005347 0.000012874 0.000021567 0.000003932
 0.000303776 0.000285558-0.000002754
      26
 0.000000041 0.000000909 0.000003968 0.000011861 0.000013614 0.000001858
 0.000317565 0.000341080-0.000009177
      27
-0.000000007 0.000000289 0.000001300 0.000008076 0.000009666 0.000000674
 0.000341210 0.000364981-0.000013382
      28
-0.000000000 0.000000000-0.000000000 0.000006101 0.000008278 0.000000290
 0.000350312 0.000373247-0.000014847
      29
 0.000000890 0.000000381-0.000000113 0.000006071 0.000008646 0.000000376
 0.000340797 0.000371749-0.000013998
      30
 0.000003369 0.000001211-0.000000067 0.000005993 0.000009712 0.000000498
 0.000314118 0.000367540-0.000011617
      31
 0.000006915 0.000002412 0.000000411 0.000005895 0.000011321 0.000000267
 0.000275530 0.000361437-0.000008174
      32
 0.000010819 0.000003777 0.000001791 0.000005787 0.000013165-0.000000870
 0.000354661 0.000232668-0.000004347
      33
 0.000014419 0.000005138 0.000005403 0.000014759 0.000004658-0.000003396
 0.000348589 0.000194032-0.000000894
      34
 0.000017519 0.000006635 0.000004857 0.000015257 0.000008241-0.000007057
 0.000344427 0.000167288 0.000001497
      35
 0.000012219 0.000035206-0.000001145-0.000000430 0.000010415-0.000009228
 0.000342953 0.000157742 0.000002351
      36
-0.000001000 0.000018488-0.000000448 0.000027249 0.000011028-0.000008192
 0.000331941 0.000154642 0.000002691
      37
-0.000000679-0.000000403 0.000022640 0.000015417 0.000014271-0.000005300
 0.000296430 0.000150665 0.000003749
      38
-0.000000307-0.000000213 0.000008607 0.000017583 0.000016919-0.000001118
 0.000249549 0.000138780 0.000005604
      39
 0.000000088 0.000000051 0.000005254 0.000012064 0.000003658 0.000012738
 0.000200417 0.000008267 0.000116049
      40
 0.000000459 0.000000297 0.000003603 0.000006717 0.000008413 0.000005557
 0.000011588 0.000150427 0.000087065
      41
 0.000000765 0.000000441 0.000002213 0.000002673 0.000012724-0.000001583
 0.000015224 0.000101873 0.000056070
      42
 0.000000983 0.000000972 0.000000457-0.000000112 0.000016333 0.000018700
-0.000006613 0.000058488 0.000026287
      43
 0.000001119-0.000000037 0.000000386-0.000001994 0.000019058 0.000021547
-0.000007804 0.000024349-0.000000150
      44
 0.000001187-0.000000702 0.000000301-0.000003163 0.000020717 0.000023442
-0.000003849 0.000003169-0.000022324
      45
 0.000001208-0.000000935 0.000000265-0.000003574 0.000021235 0.000024144
 0.000000455-0.000002828-0.000034146
      46
 0.000001217-0.000000808 0.000000359-0.000002376 0.000023405 0.000026054
-0.000000488 0.000001325-0.000034110
      47
 0.000001214-0.000000505 0.000000565 0.000029282-0.000000001 0.000031024
-0.000003030 0.000012002-0.000033252
      48
-0.000000223 0.000001135 0.000000740 0.000037122 0.000037031 0.000000693
-0.000007884 0.000026284-0.000029977
      49
-0.000000132 0.000000953 0.000000838 0.000044588 0.000041406-0.000003156
-0.000014919-0.000020903 0.000038233
      50
-0.000000218 0.000001074 0.000000623 0.000049921 0.000041279-0.000013347
-0.000019165-0.000006494 0.000042502
      51
 0.000000123 0.000000868 0.000000985 0.000046996 0.000041814-0.000006749
-0.000003201-0.000031584 0.000048266
      52
 0.000000713 0.000001112 0.000001069 0.000042949 0.000041162-0.000005272
 0.000003808 0.000057062-0.000032104
      53
 0.000001472 0.000001290 0.000001272 0.000037987 0.000039043-0.000003625
 0.000011888 0.000070976-0.000023813
      54
 0.000001346 0.000002297 0.000001469 0.000032353-0.000000800 0.000035415
 0.000018482 0.000091944-0.000007038
      55
 0.000001249 0.000003089 0.000001518 0.000026259 0.000003447 0.000022058
 0.000030509 0.000120976 0.000016829
      56
 0.000000996 0.000001334 0.000003778 0.000008980 0.000019854 0.000022579
 0.000024793 0.000157456 0.000045152
      57
 0.000000613 0.000000941 0.000004338 0.000015348 0.000013268 0.000021152
 0.000018865 0.000199031 0.000074663
      58
 0.000000147 0.000000459 0.000004850 0.000021837 0.000019118 0.000006711
 0.000242014 0.000013324 0.000102243
      59
-0.000000335 0.000000032 0.000005870 0.000027609 0.000016954 0.000000572
 0.000281987 0.000125530 0.000008657
      60
-0.000000756-0.000000252 0.000031923 0.000008913 0.000013504-0.000004560
 0.000314465 0.000143067 0.000005183
      61
-0.000001043 0.000034422-0.000000391 0.000011535 0.000010980-0.000008009
 0.000335621 0.000154006 0.000003062
      62
 0.000012219 0.000035206-0.000001145-0.000000430 0.000010415-0.000009228
 0.000342953 0.000157742 0.000002351
      63
 0.000001208-0.000000935 0.000000265-0.000003574 0.000021235 0.000024144
 0.000000455-0.000002828-0.000034146
      64
 0.000001149-0.000000841 0.000000423-0.000003582 0.000021395 0.000025177
 0.000001066-0.000005396-0.000035076
      65
 0.000000970-0.000000587 0.000000860-0.000003607 0.000021848 0.000028037
 0.000002827-0.000012536-0.000037719
      66
 0.000000680-0.000000250 0.000001472 0.000022487-0.000003626 0.000032077
 0.000005508-0.000022689-0.000041667
      67
 0.000000316 0.000000080 0.000002098 0.000023307-0.000003729 0.000036424
 0.000008681-0.000033659-0.000046297
      68
-0.000000045 0.000000335 0.000002566 0.000024108-0.000003812 0.000040209
 0.000011729-0.000043189-0.000050782
      69
-0.000000312 0.000000485 0.000002782 0.000024766-0.000003881 0.000042748
 0.000013952-0.000049535-0.000054111
      70
-0.000000410 0.000000534 0.000002823 0.000025037-0.000003907 0.000043638
 0.000014769-0.000051742-0.000055353
      71
-0.000000218 0.000001074 0.000000623 0.000049921 0.000041279-0.000013347
-0.000019165-0.000006494 0.000042502
      72
-0.000000136 0.000001074 0.000000655 0.000049891 0.000041449-0.000012968
-0.000017660-0.000006126 0.000039989
      73
 0.000000019 0.000001152 0.000000741 0.000049730 0.000041929-0.000011632
-0.000013719-0.000005121 0.000033050
      74
 0.000000280 0.000001305 0.000000884 0.000049457 0.000042612-0.000008981
-0.000008752-0.000003672 0.000022988
      75
 0.000000661 0.000001505 0.000001078 0.000049126 0.000043346-0.000005046
-0.000004244-0.000002066 0.000011730
      76
 0.000001098 0.000001290 0.000001696 0.000048818 0.000043982-0.000000642
-0.000001053-0.000000621 0.000001492
      77
 0.000001461 0.000001461 0.000001825 0.000048611 0.000044405 0.000002853
 0.000000701 0.000000379-0.000005655
      78
 0.000001611 0.000001526 0.000001860 0.000048549 0.000044553 0.000004185
 0.000001242 0.000000739-0.000008230
Norm of the difference between old and new effective charges:    0.00000000000000000000
Norm of the difference between old and new force-constants:   0.02534752740273600938
 Broadening   0.0000
       1
-0.000000000 0.000000000-0.000000000 0.000006101 0.000008278 0.000000290
 0.000350312 0.000373247-0.000014847
       2
 0.000000057 0.000000256 0.000001218 0.000008533 0.000009503 0.000000868
 0.000336523 0.000362934-0.000013719
       3
 0.000000243 0.000000756 0.000003292 0.000009480 0.000015632 0.000002603
 0.000309302 0.000325069-0.000010457
       4
 0.000000614 0.000000997 0.000003714 0.000008876 0.000021651 0.000005480
 0.000277610 0.000263169-0.000005384
       5
 0.000001121 0.000000757 0.000003040 0.000008322 0.000009442 0.000021931
 0.000224229 0.000205421 0.000001076
       6
 0.000001553 0.000000237 0.000002777 0.000007486 0.000014208 0.000014768
 0.000008507 0.000160375 0.000150954
       7
 0.000001646-0.000000238 0.000002777 0.000019393 0.000005852 0.000003066
 0.000016499 0.000095143 0.000100058
       8
-0.000000216 0.000001065 0.000002797 0.000023870 0.000003227 0.000024773
-0.000006437 0.000036106 0.000051883
       9
-0.000000476 0.000000850 0.000002810 0.000026327-0.000000046 0.000032957
-0.000005867-0.000010775 0.000005001
      10
-0.000000439 0.000000601 0.000002820 0.000026049-0.000002821 0.000040213
 0.000006077-0.000041056-0.000036653
      11
-0.000000410 0.000000534 0.000002823 0.000025037-0.000003907 0.000043638
 0.000014769-0.000051742-0.000055353
      12
-0.000000305 0.000000629 0.000002730 0.000027267-0.000002392 0.000043547
 0.000015775-0.000049160-0.000049527
      13
 0.000000012 0.000000886 0.000002560 0.000033042 0.000000832 0.000043484
 0.000017826-0.000040697-0.000035689
      14
 0.000001218 0.000000515 0.000002375 0.000040062 0.000043828 0.000003016
 0.000018555-0.000016195-0.000031733
      15
 0.000001498 0.000001098 0.000002127 0.000045694 0.000044591 0.000002689
 0.000015455-0.000006169-0.000017148
      16
 0.000001611 0.000001526 0.000001860 0.000048549 0.000044553 0.000004185
 0.000001242 0.000000739-0.000008230
      17
 0.000001613 0.000001345 0.000001981 0.000046061 0.000045170 0.000000289
-0.000002706 0.000028636-0.000010087
      18
 0.000001750 0.000001165 0.000002124 0.000042221 0.000043990 0.000002202
-0.000002745 0.000056647-0.000003335
      19
 0.000002107 0.000001016 0.000002324 0.000036836 0.000040946 0.000005895
 0.000001667 0.000085861 0.000015280
      20
 0.000002534 0.000000958 0.000002568 0.000030236 0.000009212 0.000036126
 0.000009694 0.000047422 0.000115941
      21
 0.000002676 0.000001050 0.000002813 0.000023253 0.000011378 0.000019172
 0.000029729 0.000091972 0.000146879
      22
 0.000002315 0.000001294 0.000003068 0.000016763 0.000012406 0.000027285
 0.000022087 0.000145120 0.000179317
      23
 0.000001589 0.000001571 0.000003542 0.000011304 0.000012772 0.000031154
 0.000201603 0.000013686 0.000213792
      24
 0.000000826 0.000001673 0.000004576 0.000012948 0.000007110 0.000028792
 0.000256042 0.000249864 0.000005139
      25
 0.000000286 0.000001446 0.000005347 0.000012874 0.000021567 0.000003932
 0.000303776 0.000285558-0.000002754
      26
 0.000000041 0.000000909 0.000003968 0.000011861 0.000013614 0.000001858
 0.000317565 0.000341080-0.000009177
      27
-0.000000007 0.000000289 0.000001300 0.000008076 0.000009666 0.000000674
 0.000341210 0.000364981-0.000013382
      28
-0.000000000 0.000000000-0.000000000 0.000006101 0.000008278 0.000000290
 0.000350312 0.000373247-0.000014847
      29
 0.000000890 0.000000381-0.000000113 0.000006071 0.000008646 0.000000376
 0.000340797 0.000371749-0.000013998
      30
 0.000003369 0.000001211-0.000000067 0.000005993 0.000009712 0.000000498
 0.000314118 0.000367540-0.000011617
      31
 0.000006915 0.000002412 0.000000411 0.000005895 0.000011321 0.000000267
 0.000275530 0.000361437-0.000008174
      32
 0.000010819 0.000003777 0.000001791 0.000005787 0.000013165-0.000000870
 0.000354661 0.000232668-0.000004347
      33
 0.000014419 0.000005138 0.000005403 0.000014759 0.000004658-0.000003396
 0.000348589 0.000194032-0.000000894
      34
 0.000017519 0.000006635 0.000004857 0.000015257 0.000008241-0.000007057
 0.000344427 0.000167288 0.000001497
      35
 0.000012219 0.000035206-0.000001145-0.000000430 0.000010415-0.000009228
 0.000342953 0.000157742 0.000002351
      36
-0.000001000 0.000018488-0.000000448 0.000027249 0.000011028-0.000008192
 0.000331941 0.000154642 0.000002691
      37
-0.000000679-0.000000403 0.000022640 0.000015417 0.000014271-0.000005300
 0.000296430 0.000150665 0.000003749
      38
-0.000000307-0.000000213 0.000008607 0.000017583 0.000016919-0.000001118
 0.000249549 0.000138780 0.000005604
      39
 0.000000088 0.000000051 0.000005254 0.000012064 0.000003658 0.000012738
 0.000200417 0.000008267 0.000116049
      40
 0.000000459 0.000000297 0.000003603 0.000006717 0.000008413 0.000005557
 0.000011588 0.000150427 0.000087065
      41
 0.000000765 0.000000441 0.000002213 0.000002673 0.000012724-0.000001583
 0.000015224 0.000101873 0.000056070
      42
 0.000000983 0.000000972 0.000000457-0.000000112 0.000016333 0.000018700
-0.000006613 0.000058488 0.000026287
      43
 0.000001119-0.000000037 0.000000386-0.000001994 0.000019058 0.000021547
-0.000007804 0.000024349-0.000000150
      44
 0.000001187-0.000000702 0.000000301-0.000003163 0.000020717 0.000023442
-0.000003849 0.000003169-0.000022324
      45
 0.000001208-0.000000935 0.000000265-0.000003574 0.000021235 0.000024144
 0.000000455-0.000002828-0.000034146
      46
 0.000001217-0.000000808 0.000000359-0.000002376 0.000023405 0.000026054
-0.000000488 0.000001325-0.000034110
      47
 0.000001214-0.000000505 0.000000565 0.000029282-0.000000001 0.000031024
-0.000003030 0.000012002-0.000033252
      48
-0.000000223 0.000001135 0.000000740 0.000037122 0.000037031 0.000000693
-0.000007884 0.000026284-0.000029977
      49
-0.000000132 0.000000953 0.000000838 0.000044588 0.000041406-0.000003156
-0.000014919-0.000020903 0.000038233
      50
-0.000000218 0.000001074 0.000000623 0.000049921 0.000041279-0.000013347
-0.000019165-0.000006494 0.000042502
      51
 0.000000123 0.000000868 0.000000985 0.000046996 0.000041814-0.000006749
-0.000003201-0.000031584 0.000048266
      52
 0.000000713 0.000001112 0.000001069 0.000042949 0.000041162-0.000005272
 0.000003808 0.000057062-0.000032104
      53
 0.000001472 0.000001290 0.000001272 0.000037987 0.000039043-0.000003625
 0.000011888 0.000070976-0.000023813
      54
 0.000001346 0.000002297 0.000001469 0.000032353-0.000000800 0.000035415
 0.000018482 0.000091944-0.000007038
      55
 0.000001249 0.000003089 0.000001518 0.000026259 0.000003447 0.000022058
 0.000030509 0.000120976 0.000016829
      56
 0.000000996 0.000001334 0.000003778 0.000008980 0.000019854 0.000022579
 0.000024793 0.000157456 0.000045152
      57
 0.000000613 0.000000941 0.000004338 0.000015348 0.000013268 0.000021152
 0.000018865 0.000199031 0.000074663
      58
 0.000000147 0.000000459 0.000004850 0.000021837 0.000019118 0.000006711
 0.000242014 0.000013324 0.000102243
      59
-0.000000335 0.000000032 0.000005870 0.000027609 0.000016954 0.000000572
 0.000281987 0.000125530 0.000008657
      60
-0.000000756-0.000000252 0.000031923 0.000008913 0.000013504-0.000004560
 0.000314465 0.000143067 0.000005183
      61
-0.000001043 0.000034422-0.000000391 0.000011535 0.000010980-0.000008009
 0.000335621 0.000154006 0.000003062
      62
 0.000012219 0.000035206-0.000001145-0.000000430 0.000010415-0.000009228
 0.000342953 0.000157742 0.000002351
      63
 0.000001208-0.000000935 0.000000265-0.000003574 0.000021235 0.000024144
 0.000000455-0.000002828-0.000034146
      64
 0.000001149-0.000000841 0.000000423-0.000003582 0.000021395 0.000025177
 0.000001066-0.000005396-0.000035076
      65
 0.000000970-0.000000587 0.000000860-0.000003607 0.000021848 0.000028037
 0.000002827-0.000012536-0.000037719
      66
 0.000000680-0.000000250 0.000001472 0.000022487-0.000003626 0.000032077
 0.000005508-0.000022689-0.000041667
      67
 0.000000316 0.000000080 0.000002098 0.000023307-0.000003729 0.000036424
 0.000008681-0.000033659-0.000046297
      68
-0.000000045 0.000000335 0.000002566 0.000024108-0.000003812 0.000040209
 0.000011729-0.000043189-0.000050782
      69
-0.000000312 0.000000485 0.000002782 0.000024766-0.000003881 0.000042748
 0.000013952-0.000049535-0.000054111
      70
-0.000000410 0.000000534 0.000002823 0.000025037-0.000003907 0.000043638
 0.000014769-0.000051742-0.000055353
      71
-0.000000218 0.000001074 0.000000623 0.000049921 0.000041279-0.000013347
-0.000019165-0.000006494 0.000042502
      72
-0.000000136 0.000001074 0.000000655 0.000049891 0.000041449-0.000012968
-0.000017660-0.000006126 0.000039989
      73
 0.000000019 0.000001152 0.000000741 0.000049730 0.000041929-0.000011632
-0.000013719-0.000005121 0.000033050
      74
 0.000000280 0.000001305 0.000000884 0.000049457 0.000042612-0.000008981
-0.000008752-0.000003672 0.000022988
      75
 0.000000661 0.000001505 0.000001078 0.000049126 0.000043346-0.000005046
-0.000004244-0.000002066 0.000011730
      76
 0.000001098 0.000001290 0.000001696 0.000048818 0.000043982-0.000000642
-0.000001053-0.000000621 0.000001492
      77
 0.000001461 0.000001461 0.000001825 0.000048611 0.000044405 0.000002853
 0.000000701 0.000000379-0.000005655
      78
 0.000001611 0.000001526 0.000001860 0.000048549 0.000044553 0.000004185
 0.000001242 0.000000739-0.000008230
Norm of the difference between old and new effective charges:    0.00000000000000000000
Norm of the difference between old and new force-constants:   0.02534752740273600938
 Broadening   0.0000
       1
-0.000000000 0.000000000-0.000000000 0.000006101 0.000008278 0.000000290
 0.000350312 0.000373247-0.000014847
       2
 0.000000057 0.000000256 0.000001218 0.000008533 0.000009503 0.000000868
 0.000336523 0.000362934-0.000013719
       3
 0.000000243 0.000000756 0.000003292 0.000009480 0.000015632 0.000002603
 0.000309302 0.000325069-0.000010457
       4
 0.000000614 0.000000997 0.000003714 0.000008876 0.000021651 0.000005480
 0.000277610 0.000263169-0.000005384
       5
 0.000001121 0.000000757 0.000003040 0.000008322 0.000009442 0.000021931
 0.000224229 0.000205421 0.000001076
       6
 0.000001553 0.000000237 0.000002777 0.000007486 0.000014208 0.000014768
 0.000008507 0.000160375 0.000150954
       7
 0.000001646-0.000000238 0.000002777 0.000019393 0.000005852 0.000003066
 0.000016499 0.000095143 0.000100058
       8
-0.000000216 0.000001065 0.000002797 0.000023870 0.000003227 0.000024773
-0.000006437 0.000036106 0.000051883
       9
-0.000000476 0.000000850 0.000002810 0.000026327-0.000000046 0.000032957
-0.000005867-0.000010775 0.000005001
      10
-0.000000439 0.000000601 0.000002820 0.000026049-0.000002821 0.000040213
 0.000006077-0.000041056-0.000036653
      11
-0.000000410 0.000000534 0.000002823 0.000025037-0.000003907 0.000043638
 0.000014769-0.000051742-0.000055353
      12
-0.000000305 0.000000629 0.000002730 0.000027267-0.000002392 0.000043547
 0.000015775-0.000049160-0.000049527
      13
 0.000000012 0.000000886 0.000002560 0.000033042 0.000000832 0.000043484
 0.000017826-0.000040697-0.000035689
      14
 0.000001218 0.000000515 0.000002375 0.000040062 0.000043828 0.000003016
 0.000018555-0.000016195-0.000031733
      15
 0.000001498 0.000001098 0.000002127 0.000045694 0.000044591 0.000002689
 0.000015455-0.000006169-0.000017148
      16
 0.000001611 0.000001526 0.000001860 0.000048549 0.000044553 0.000004185
 0.000001242 0.000000739-0.000008230
      17
 0.000001613 0.000001345 0.000001981 0.000046061 0.000045170 0.000000289
-0.000002706 0.000028636-0.000010087
      18
 0.000001750 0.000001165 0.000002124 0.000042221 0.000043990 0.000002202
-0.000002745 0.000056647-0.000003335
      19
 0.000002107 0.000001016 0.000002324 0.000036836 0.000040946 0.000005895
 0.000001667 0.000085861 0.000015280
      20
 0.000002534 0.000000958 0.000002568 0.000030236 0.000009212 0.000036126
 0.000009694 0.000047422 0.000115941
      21
 0.000002676 0.000001050 0.000002813 0.000023253 0.000011378 0.000019172
 0.000029729 0.000091972 0.000146879
      22
 0.000002315 0.000001294 0.000003068 0.000016763 0.000012406 0.000027285
 0.000022087 0.000145120 0.000179317
      23
 0.000001589 0.000001571 0.000003542 0.000011304 0.000012772 0.000031154
 0.000201603 0.000013686 0.000213792
      24
 0.000000826 0.000001673 0.000004576 0.000012948 0.000007110 0.000028792
 0.000256042 0.000249864 0.000005139
      25
 0.000000286 0.000001446 0.000005347 0.000012874 0.000021567 0.000003932
 0.000303776 0.000285558-0.000002754
      26
 0.000000041 0.000000909 0.000003968 0.000011861 0.000013614 0.000001858
 0.000317565 0.000341080-0.000009177
      27
-0.000000007 0.000000289 0.000001300 0.000008076 0.000009666 0.000000674
 0.000341210 0.000364981-0.000013382
      28
-0.000000000 0.000000000-0.000000000 0.000006101 0.000008278 0.000000290
 0.000350312 0.000373247-0.000014847
      29
 0.000000890 0.000000381-0.000000113 0.000006071 0.000008646 0.000000376
 0.000340797 0.000371749-0.000013998
      30
 0.000003369 0.000001211-0.000000067 0.000005993 0.000009712 0.000000498
 0.000314118 0.000367540-0.000011617
      31
 0.000006915 0.000002412 0.000000411 0.000005895 0.000011321 0.000000267
 0.000275530 0.000361437-0.000008174
      32
 0.000010819 0.000003777 0.000001791 0.000005787 0.000013165-0.000000870
 0.000354661 0.000232668-0.000004347
      33
 0.000014419 0.000005138 0.000005403 0.000014759 0.000004658-0.000003396
 0.000348589 0.000194032-0.000000894
      34
 0.000017519 0.000006635 0.000004857 0.000015257 0.000008241-0.000007057
 0.000344427 0.000167288 0.000001497
      35
 0.000012219 0.000035206-0.000001145-0.000000430 0.000010415-0.000009228
 0.000342953 0.000157742 0.000002351
      36
-0.000001000 0.000018488-0.000000448 0.000027249 0.000011028-0.000008192
 0.000331941 0.000154642 0.000002691
      37
-0.000000679-0.000000403 0.000022640 0.000015417 0.000014271-0.000005300
 0.000296430 0.000150665 0.000003749
      38
-0.000000307-0.000000213 0.000008607 0.000017583 0.000016919-0.000001118
 0.000249549 0.000138780 0.000005604
      39
 0.000000088 0.000000051 0.000005254 0.000012064 0.000003658 0.000012738
 0.000200417 0.000008267 0.000116049
      40
 0.000000459 0.000000297 0.000003603 0.000006717 0.000008413 0.000005557
 0.000011588 0.000150427 0.000087065
      41
 0.000000765 0.000000441 0.000002213 0.000002673 0.000012724-0.000001583
 0.000015224 0.000101873 0.000056070
      42
 0.000000983 0.000000972 0.000000457-0.000000112 0.000016333 0.000018700
-0.000006613 0.000058488 0.000026287
      43
 0.000001119-0.000000037 0.000000386-0.000001994 0.000019058 0.000021547
-0.000007804 0.000024349-0.000000150
      44
 0.000001187-0.000000702 0.000000301-0.000003163 0.000020717 0.000023442
-0.000003849 0.000003169-0.000022324
      45
 0.000001208-0.000000935 0.000000265-0.000003574 0.000021235 0.000024144
 0.000000455-0.000002828-0.000034146
      46
 0.000001217-0.000000808 0.000000359-0.000002376 0.000023405 0.000026054
-0.000000488 0.000001325-0.000034110
      47
 0.000001214-0.000000505 0.000000565 0.000029282-0.000000001 0.000031024
-0.000003030 0.000012002-0.000033252
      48
-0.000000223 0.000001135 0.000000740 0.000037122 0.000037031 0.000000693
-0.000007884 0.000026284-0.000029977
      49
-0.000000132 0.000000953 0.000000838 0.000044588 0.000041406-0.000003156
-0.000014919-0.000020903 0.000038233
      50
-0.000000218 0.000001074 0.000000623 0.000049921 0.000041279-0.000013347
-0.000019165-0.000006494 0.000042502
      51
 0.000000123 0.000000868 0.000000985 0.000046996 0.000041814-0.000006749
-0.000003201-0.000031584 0.000048266
      52
 0.000000713 0.000001112 0.000001069 0.000042949 0.000041162-0.000005272
 0.000003808 0.000057062-0.000032104
      53
 0.000001472 0.000001290 0.000001272 0.000037987 0.000039043-0.000003625
 0.000011888 0.000070976-0.000023813
      54
 0.000001346 0.000002297 0.000001469 0.000032353-0.000000800 0.000035415
 0.000018482 0.000091944-0.000007038
      55
 0.000001249 0.000003089 0.000001518 0.000026259 0.000003447 0.000022058
 0.000030509 0.000120976 0.000016829
      56
 0.000000996 0.000001334 0.000003778 0.000008980 0.000019854 0.000022579
 0.000024793 0.000157456 0.000045152
      57
 0.000000613 0.000000941 0.000004338 0.000015348 0.000013268 0.000021152
 0.000018865 0.000199031 0.000074663
      58
 0.000000147 0.000000459 0.000004850 0.000021837 0.000019118 0.000006711
 0.000242014 0.000013324 0.000102243
      59
-0.000000335 0.000000032 0.000005870 0.000027609 0.000016954 0.000000572
 0.000281987 0.000125530 0.000008657
      60
-0.000000756-0.000000252 0.000031923 0.000008913 0.000013504-0.000004560
 0.000314465 0.000143067 0.000005183
      61
-0.000001043 0.000034422-0.000000391 0.000011535 0.000010980-0.000008009
 0.000335621 0.000154006 0.000003062
      62
 0.000012219 0.000035206-0.000001145-0.000000430 0.000010415-0.000009228
 0.000342953 0.000157742 0.000002351
      63
 0.000001208-0.000000935 0.000000265-0.000003574 0.000021235 0.000024144
 0.000000455-0.000002828-0.000034146
      64
 0.000001149-0.000000841 0.000000423-0.000003582 0.000021395 0.000025177
 0.000001066-0.000005396-0.000035076
      65
 0.000000970-0.000000587 0.000000860-0.000003607 0.000021848 0.000028037
 0.000002827-0.000012536-0.000037719
      66
 0.000000680-0.000000250 0.000001472 0.000022487-0.000003626 0.000032077
 0.000005508-0.000022689-0.000041667
      67
 0.000000316 0.000000080 0.000002098 0.000023307-0.000003729 0.000036424
 0.000008681-0.000033659-0.000046297
      68
-0.000000045 0.000000335 0.000002566 0.000024108-0.000003812 0.000040209
 0.000011729-0.000043189-0.000050782
      69
-0.000000312 0.000000485 0.000002782 0.000024766-0.000003881 0.000042748
 0.000013952-0.000049535-0.000054111
      70
-0.000000410 0.000000534 0.000002823 0.000025037-0.000003907 0.000043638
 0.000014769-0.000051742-0.000055353
      71
-0.000000218 0.000001074 0.000000623 0.000049921 0.000041279-0.000013347
-0.000019165-0.000006494 0.000042502
      72
-0.000000136 0.000001074 0.000000655 0.000049891 0.000041449-0.000012968
-0.000017660-0.000006126 0.000039989
      73
 0.000000019 0.000001152 0.000000741 0.000049730 0.000041929-0.000011632
-0.000013719-0.000005121 0.000033050
      74
 0.000000280 0.000001305 0.000000884 0.000049457 0.000042612-0.000008981
-0.000008752-0.000003672 0.000022988
      75
 0.000000661 0.000001505 0.000001078 0.000049126 0.000043346-0.000005046
-0.000004244-0.000002066 0.000011730
      76
 0.000001098 0.000001290 0.000001696 0.000048818 0.000043982-0.000000642
-0.000001053-0.000000621 0.000001492
      77
 0.000001461 0.000001461 0.000001825 0.000048611 0.000044405 0.000002853
 0.000000701 0.000000379-0.000005655
      78
 0.000001611 0.000001526 0.000001860 0.000048549 0.000044553 0.000004185
 0.000001242 0.000000739-0.000008230
Norm of the difference between old and new effective charges:    0.00000000000000000000
Norm of the difference between old and new force-constants:   0.02534752740273600938
 Broadening   0.0000
       1
-0.000000000 0.000000000-0.000000000 0.000006101 0.000008278 0.000000290
 0.000350312 0.000373247-0.000014847
       2
 0.000000057 0.000000256 0.000001218 0.000008533 0.000009503 0.000000868
 0.000336523 0.000362934-0.000013719
       3
 0.000000243 0.000000756 0.000003292 0.000009480 0.000015632 0.000002603
 0.000309302 0.000325069-0.000010457
       4
 0.000000614 0.000000997 0.000003714 0.000008876 0.000021651 0.000005480
 0.000277610 0.000263169-0.000005384
       5
 0.000001121 0.000000757 0.000003040 0.000008322 0.000009442 0.000021931
 0.000224229 0.000205421 0.000001076
       6
 0.000001553 0.000000237 0.000002777 0.000007486 0.000014208 0.000014768
 0.000008507 0.000160375 0.000150954
       7
 0.000001646-0.000000238 0.000002777 0.000019393 0.000005852 0.000003066
 0.000016499 0.000095143 0.000100058
       8
-0.000000216 0.000001065 0.000002797 0.000023870 0.000003227 0.000024773
-0.000006437 0.000036106 0.000051883
       9
-0.000000476 0.000000850 0.000002810 0.000026327-0.000000046 0.000032957
-0.000005867-0.000010775 0.000005001
      10
-0.000000439 0.000000601 0.000002820 0.000026049-0.000002821 0.000040213
 0.000006077-0.000041056-0.000036653
      11
-0.000000410 0.000000534 0.000002823 0.000025037-0.000003907 0.000043638
 0.000014769-0.000051742-0.000055353
      12
-0.000000305 0.000000629 0.000002730 0.000027267-0.000002392 0.000043547
 0.000015775-0.000049160-0.000049527
      13
 0.000000012 0.000000886 0.000002560 0.000033042 0.000000832 0.000043484
 0.000017826-0.000040697-0.000035689
      14
 0.000001218 0.000000515 0.000002375 0.000040062 0.000043828 0.000003016
 0.000018555-0.000016195-0.000031733
      15
 0.000001498 0.000001098 0.000002127 0.000045694 0.000044591 0.000002689
 0.000015455-0.000006169-0.000017148
      16
 0.000001611 0.000001526 0.000001860 0.000048549 0.000044553 0.000004185
 0.000001242 0.000000739-0.000008230
      17
 0.000001613 0.000001345 0.000001981 0.000046061 0.000045170 0.000000289
-0.000002706 0.000028636-0.000010087
      18
 0.000001750 0.000001165 0.000002124 0.000042221 0.000043990 0.000002202
-0.000002745 0.000056647-0.000003335
      19
 0.000002107 0.000001016 0.000002324 0.000036836 0.000040946 0.000005895
 0.000001667 0.000085861 0.000015280
      20
 0.000002534 0.000000958 0.000002568 0.000030236 0.000009212 0.000036126
 0.000009694 0.000047422 0.000115941
      21
 0.000002676 0.000001050 0.000002813 0.000023253 0.000011378 0.000019172
 0.000029729 0.000091972 0.000146879
      22
 0.000002315 0.000001294 0.000003068 0.000016763 0.000012406 0.000027285
 0.000022087 0.000145120 0.000179317
      23
 0.000001589 0.000001571 0.000003542 0.000011304 0.000012772 0.000031154
 0.000201603 0.000013686 0.000213792
      24
 0.000000826 0.000001673 0.000004576 0.000012948 0.000007110 0.000028792
 0.000256042 0.000249864 0.000005139
      25
 0.000000286 0.000001446 0.000005347 0.000012874 0.000021567 0.000003932
 0.000303776 0.000285558-0.000002754
      26
 0.000000041 0.000000909 0.000003968 0.000011861 0.000013614 0.000001858
 0.000317565 0.000341080-0.000009177
      27
-0.000000007 0.000000289 0.000001300 0.000008076 0.000009666 0.000000674
 0.000341210 0.000364981-0.000013382
      28
-0.000000000 0.000000000-0.000000000 0.000006101 0.000008278 0.000000290
 0.000350312 0.000373247-0.000014847
      29
 0.000000890 0.000000381-0.000000113 0.000006071 0.000008646 0.000000376
 0.000340797 0.000371749-0.000013998
      30
 0.000003369 0.000001211-0.000000067 0.000005993 0.000009712 0.000000498
 0.000314118 0.000367540-0.000011617
      31
 0.000006915 0.000002412 0.000000411 0.000005895 0.000011321 0.000000267
 0.000275530 0.000361437-0.000008174
      32
 0.000010819 0.000003777 0.000001791 0.000005787 0.000013165-0.000000870
 0.000354661 0.000232668-0.000004347
      33
 0.000014419 0.000005138 0.000005403 0.000014759 0.000004658-0.000003396
 0.000348589 0.000194032-0.000000894
      34
 0.000017519 0.000006635 0.000004857 0.000015257 0.000008241-0.000007057
 0.000344427 0.000167288 0.000001497
      35
 0.000012219 0.000035206-0.000001145-0.000000430 0.000010415-0.000009228
 0.000342953 0.000157742 0.000002351
      36
-0.000001000 0.000018488-0.000000448 0.000027249 0.000011028-0.000008192
 0.000331941 0.000154642 0.000002691
      37
-0.000000679-0.000000403 0.000022640 0.000015417 0.000014271-0.000005300
 0.000296430 0.000150665 0.000003749
      38
-0.000000307-0.000000213 0.000008607 0.000017583 0.000016919-0.000001118
 0.000249549 0.000138780 0.000005604
      39
 0.000000088 0.000000051 0.000005254 0.000012064 0.000003658 0.000012738
 0.000200417 0.000008267 0.000116049
      40
 0.000000459 0.000000297 0.000003603 0.000006717 0.000008413 0.000005557
 0.000011588 0.000150427 0.000087065
      41
 0.000000765 0.000000441 0.000002213 0.000002673 0.000012724-0.000001583
 0.000015224 0.000101873 0.000056070
      42
 0.000000983 0.000000972 0.000000457-0.000000112 0.000016333 0.000018700
-0.000006613 0.000058488 0.000026287
      43
 0.000001119-0.000000037 0.000000386-0.000001994 0.000019058 0.000021547
-0.000007804 0.000024349-0.000000150
      44
 0.000001187-0.000000702 0.000000301-0.000003163 0.000020717 0.000023442
-0.000003849 0.000003169-0.000022324
      45
 0.000001208-0.000000935 0.000000265-0.000003574 0.000021235 0.000024144
 0.000000455-0.000002828-0.000034146
      46
 0.000001217-0.000000808 0.000000359-0.000002376 0.000023405 0.000026054
-0.000000488 0.000001325-0.000034110
      47
 0.000001214-0.000000505 0.000000565 0.000029282-0.000000001 0.000031024
-0.000003030 0.000012002-0.000033252
      48
-0.000000223 0.000001135 0.000000740 0.000037122 0.000037031 0.000000693
-0.000007884 0.000026284-0.000029977
      49
-0.000000132 0.000000953 0.000000838 0.000044588 0.000041406-0.000003156
-0.000014919-0.000020903 0.000038233
      50
-0.000000218 0.000001074 0.000000623 0.000049921 0.000041279-0.000013347
-0.000019165-0.000006494 0.000042502
      51
 0.000000123 0.000000868 0.000000985 0.000046996 0.000041814-0.000006749
-0.000003201-0.000031584 0.000048266
      52
 0.000000713 0.000001112 0.000001069 0.000042949 0.000041162-0.000005272
 0.000003808 0.000057062-0.000032104
      53
 0.000001472 0.000001290 0.000001272 0.000037987 0.000039043-0.000003625
 0.000011888 0.000070976-0.000023813
      54
 0.000001346 0.000002297 0.000001469 0.000032353-0.000000800 0.000035415
 0.000018482 0.000091944-0.000007038
      55
 0.000001249 0.000003089 0.000001518 0.000026259 0.000003447 0.000022058
 0.000030509 0.000120976 0.000016829
      56
 0.000000996 0.000001334 0.000003778 0.000008980 0.000019854 0.000022579
 0.000024793 0.000157456 0.000045152
      57
 0.000000613 0.000000941 0.000004338 0.000015348 0.000013268 0.000021152
 0.000018865 0.000199031 0.000074663
      58
 0.000000147 0.000000459 0.000004850 0.000021837 0.000019118 0.000006711
 0.000242014 0.000013324 0.000102243
      59
-0.000000335 0.000000032 0.000005870 0.000027609 0.000016954 0.000000572
 0.000281987 0.000125530 0.000008657
      60
-0.000000756-0.000000252 0.000031923 0.000008913 0.000013504-0.000004560
 0.000314465 0.000143067 0.000005183
      61
-0.000001043 0.000034422-0.000000391 0.000011535 0.000010980-0.000008009
 0.000335621 0.000154006 0.000003062
      62
 0.000012219 0.000035206-0.000001145-0.000000430 0.000010415-0.000009228
 0.000342953 0.000157742 0.000002351
      63
 0.000001208-0.000000935 0.000000265-0.000003574 0.000021235 0.000024144
 0.000000455-0.000002828-0.000034146
      64
 0.000001149-0.000000841 0.000000423-0.000003582 0.000021395 0.000025177
 0.000001066-0.000005396-0.000035076
      65
 0.000000970-0.000000587 0.000000860-0.000003607 0.000021848 0.000028037
 0.000002827-0.000012536-0.000037719
      66
 0.000000680-0.000000250 0.000001472 0.000022487-0.000003626 0.000032077
 0.000005508-0.000022689-0.000041667
      67
 0.000000316 0.000000080 0.000002098 0.000023307-0.000003729 0.000036424
 0.000008681-0.000033659-0.000046297
      68
-0.000000045 0.000000335 0.000002566 0.000024108-0.000003812 0.000040209
 0.000011729-0.000043189-0.000050782
      69
-0.000000312 0.000000485 0.000002782 0.000024766-0.000003881 0.000042748
 0.000013952-0.000049535-0.000054111
      70
-0.000000410 0.000000534 0.000002823 0.000025037-0.000003907 0.000043638
 0.000014769-0.000051742-0.000055353
      71
-0.000000218 0.000001074 0.000000623 0.000049921 0.000041279-0.000013347
-0.000019165-0.000006494 0.000042502
      72
-0.000000136 0.000001074 0.000000655 0.000049891 0.000041449-0.000012968
-0.000017660-0.000006126 0.000039989
      73
 0.000000019 0.000001152 0.000000741 0.000049730 0.000041929-0.000011632
-0.000013719-0.000005121 0.000033050
      74
 0.000000280 0.000001305 0.000000884 0.000049457 0.000042612-0.000008981
-0.000008752-0.000003672 0.000022988
      75
 0.000000661 0.000001505 0.000001078 0.000049126 0.000043346-0.000005046
-0.000004244-0.000002066 0.000011730
      76
 0.000001098 0.000001290 0.000001696 0.000048818 0.000043982-0.000000642
-0.000001053-0.000000621 0.000001492
      77
 0.000001461 0.000001461 0.000001825 0.000048611 0.000044405 0.000002853
 0.000000701 0.000000379-0.000005655
      78
 0.000001611 0.000001526 0.000001860 0.000048549 0.000044553 0.000004185
 0.000001242 0.000000739-0.000008230
Norm of the difference between old and new effective charges:    0.00000000000000000000
Norm of the difference between old and new force-constants:   0.02534752740273600938
 Broadening   0.0000
       1
-0.000000000 0.000000000-0.000000000 0.000006101 0.000008278 0.000000290
 0.000350312 0.000373247-0.000014847
       2
 0.000000057 0.000000256 0.000001218 0.000008533 0.000009503 0.000000868
 0.000336523 0.000362934-0.000013719
       3
 0.000000243 0.000000756 0.000003292 0.000009480 0.000015632 0.000002603
 0.000309302 0.000325069-0.000010457
       4
 0.000000614 0.000000997 0.000003714 0.000008876 0.000021651 0.000005480
 0.000277610 0.000263169-0.000005384
       5
 0.000001121 0.000000757 0.000003040 0.000008322 0.000009442 0.000021931
 0.000224229 0.000205421 0.000001076
       6
 0.000001553 0.000000237 0.000002777 0.000007486 0.000014208 0.000014768
 0.000008507 0.000160375 0.000150954
       7
 0.000001646-0.000000238 0.000002777 0.000019393 0.000005852 0.000003066
 0.000016499 0.000095143 0.000100058
       8
-0.000000216 0.000001065 0.000002797 0.000023870 0.000003227 0.000024773
-0.000006437 0.000036106 0.000051883
       9
-0.000000476 0.000000850 0.000002810 0.000026327-0.000000046 0.000032957
-0.000005867-0.000010775 0.000005001
      10
-0.000000439 0.000000601 0.000002820 0.000026049-0.000002821 0.000040213
 0.000006077-0.000041056-0.000036653
      11
-0.000000410 0.000000534 0.000002823 0.000025037-0.000003907 0.000043638
 0.000014769-0.000051742-0.000055353
      12
-0.000000305 0.000000629 0.000002730 0.000027267-0.000002392 0.000043547
 0.000015775-0.000049160-0.000049527
      13
 0.000000012 0.000000886 0.000002560 0.000033042 0.000000832 0.000043484
 0.000017826-0.000040697-0.000035689
      14
 0.000001218 0.000000515 0.000002375 0.000040062 0.000043828 0.000003016
 0.000018555-0.000016195-0.000031733
      15
 0.000001498 0.000001098 0.000002127 0.000045694 0.000044591 0.000002689
 0.000015455-0.000006169-0.000017148
      16
 0.000001611 0.000001526 0.000001860 0.000048549 0.000044553 0.000004185
 0.000001242 0.000000739-0.000008230
      17
 0.000001613 0.000001345 0.000001981 0.000046061 0.000045170 0.000000289
-0.000002706 0.000028636-0.000010087
      18
 0.000001750 0.000001165 0.000002124 0.000042221 0.000043990 0.000002202
-0.000002745 0.000056647-0.000003335
      19
 0.000002107 0.000001016 0.000002324 0.000036836 0.000040946 0.000005895
 0.000001667 0.000085861 0.000015280
      20
 0.000002534 0.000000958 0.000002568 0.000030236 0.000009212 0.000036126
 0.000009694 0.000047422 0.000115941
      21
 0.000002676 0.000001050 0.000002813 0.000023253 0.000011378 0.000019172
 0.000029729 0.000091972 0.000146879
      22
 0.000002315 0.000001294 0.000003068 0.000016763 0.000012406 0.000027285
 0.000022087 0.000145120 0.000179317
      23
 0.000001589 0.000001571 0.000003542 0.000011304 0.000012772 0.000031154
 0.000201603 0.000013686 0.000213792
      24
 0.000000826 0.000001673 0.000004576 0.000012948 0.000007110 0.000028792
 0.000256042 0.000249864 0.000005139
      25
 0.000000286 0.000001446 0.000005347 0.000012874 0.000021567 0.000003932
 0.000303776 0.000285558-0.000002754
      26
 0.000000041 0.000000909 0.000003968 0.000011861 0.000013614 0.000001858
 0.000317565 0.000341080-0.000009177
      27
-0.000000007 0.000000289 0.000001300 0.000008076 0.000009666 0.000000674
 0.000341210 0.000364981-0.000013382
      28
-0.000000000 0.000000000-0.000000000 0.000006101 0.000008278 0.000000290
 0.000350312 0.000373247-0.000014847
      29
 0.000000890 0.000000381-0.000000113 0.000006071 0.000008646 0.000000376
 0.000340797 0.000371749-0.000013998
      30
 0.000003369 0.000001211-0.000000067 0.000005993 0.000009712 0.000000498
 0.000314118 0.000367540-0.000011617
      31
 0.000006915 0.000002412 0.000000411 0.000005895 0.000011321 0.000000267
 0.000275530 0.000361437-0.000008174
      32
 0.000010819 0.000003777 0.000001791 0.000005787 0.000013165-0.000000870
 0.000354661 0.000232668-0.000004347
      33
 0.000014419 0.000005138 0.000005403 0.000014759 0.000004658-0.000003396
 0.000348589 0.000194032-0.000000894
      34
 0.000017519 0.000006635 0.000004857 0.000015257 0.000008241-0.000007057
 0.000344427 0.000167288 0.000001497
      35
 0.000012219 0.000035206-0.000001145-0.000000430 0.000010415-0.000009228
 0.000342953 0.000157742 0.000002351
      36
-0.000001000 0.000018488-0.000000448 0.000027249 0.000011028-0.000008192
 0.000331941 0.000154642 0.000002691
      37
-0.000000679-0.000000403 0.000022640 0.000015417 0.000014271-0.000005300
 0.000296430 0.000150665 0.000003749
      38
-0.000000307-0.000000213 0.000008607 0.000017583 0.000016919-0.000001118
 0.000249549 0.000138780 0.000005604
      39
 0.000000088 0.000000051 0.000005254 0.000012064 0.000003658 0.000012738
 0.000200417 0.000008267 0.000116049
      40
 0.000000459 0.000000297 0.000003603 0.000006717 0.000008413 0.000005557
 0.000011588 0.000150427 0.000087065
      41
 0.000000765 0.000000441 0.000002213 0.000002673 0.000012724-0.000001583
 0.000015224 0.000101873 0.000056070
      42
 0.000000983 0.000000972 0.000000457-0.000000112 0.000016333 0.000018700
-0.000006613 0.000058488 0.000026287
      43
 0.000001119-0.000000037 0.000000386-0.000001994 0.000019058 0.000021547
-0.000007804 0.000024349-0.000000150
      44
 0.000001187-0.000000702 0.000000301-0.000003163 0.000020717 0.000023442
-0.000003849 0.000003169-0.000022324
      45
 0.000001208-0.000000935 0.000000265-0.000003574 0.000021235 0.000024144
 0.000000455-0.000002828-0.000034146
      46
 0.000001217-0.000000808 0.000000359-0.000002376 0.000023405 0.000026054
-0.000000488 0.000001325-0.000034110
      47
 0.000001214-0.000000505 0.000000565 0.000029282-0.000000001 0.000031024
-0.000003030 0.000012002-0.000033252
      48
-0.000000223 0.000001135 0.000000740 0.000037122 0.000037031 0.000000693
-0.000007884 0.000026284-0.000029977
      49
-0.000000132 0.000000953 0.000000838 0.000044588 0.000041406-0.000003156
-0.000014919-0.000020903 0.000038233
      50
-0.000000218 0.000001074 0.000000623 0.000049921 0.000041279-0.000013347
-0.000019165-0.000006494 0.000042502
      51
 0.000000123 0.000000868 0.000000985 0.000046996 0.000041814-0.000006749
-0.000003201-0.000031584 0.000048266
      52
 0.000000713 0.000001112 0.000001069 0.000042949 0.000041162-0.000005272
 0.000003808 0.000057062-0.000032104
      53
 0.000001472 0.000001290 0.000001272 0.000037987 0.000039043-0.000003625
 0.000011888 0.000070976-0.000023813
      54
 0.000001346 0.000002297 0.000001469 0.000032353-0.000000800 0.000035415
 0.000018482 0.000091944-0.000007038
      55
 0.000001249 0.000003089 0.000001518 0.000026259 0.000003447 0.000022058
 0.000030509 0.000120976 0.000016829
      56
 0.000000996 0.000001334 0.000003778 0.000008980 0.000019854 0.000022579
 0.000024793 0.000157456 0.000045152
      57
 0.000000613 0.000000941 0.000004338 0.000015348 0.000013268 0.000021152
 0.000018865 0.000199031 0.000074663
      58
 0.000000147 0.000000459 0.000004850 0.000021837 0.000019118 0.000006711
 0.000242014 0.000013324 0.000102243
      59
-0.000000335 0.000000032 0.000005870 0.000027609 0.000016954 0.000000572
 0.000281987 0.000125530 0.000008657
      60
-0.000000756-0.000000252 0.000031923 0.000008913 0.000013504-0.000004560
 0.000314465 0.000143067 0.000005183
      61
-0.000001043 0.000034422-0.000000391 0.000011535 0.000010980-0.000008009
 0.000335621 0.000154006 0.000003062
      62
 0.000012219 0.000035206-0.000001145-0.000000430 0.000010415-0.000009228
 0.000342953 0.000157742 0.000002351
      63
 0.000001208-0.000000935 0.000000265-0.000003574 0.000021235 0.000024144
 0.000000455-0.000002828-0.000034146
      64
 0.000001149-0.000000841 0.000000423-0.000003582 0.000021395 0.000025177
 0.000001066-0.000005396-0.000035076
      65
 0.000000970-0.000000587 0.000000860-0.000003607 0.000021848 0.000028037
 0.000002827-0.000012536-0.000037719
      66
 0.000000680-0.000000250 0.000001472 0.000022487-0.000003626 0.000032077
 0.000005508-0.000022689-0.000041667
      67
 0.000000316 0.000000080 0.000002098 0.000023307-0.000003729 0.000036424
 0.000008681-0.000033659-0.000046297
      68
-0.000000045 0.000000335 0.000002566 0.000024108-0.000003812 0.000040209
 0.000011729-0.000043189-0.000050782
      69
-0.000000312 0.000000485 0.000002782 0.000024766-0.000003881 0.000042748
 0.000013952-0.000049535-0.000054111
      70
-0.000000410 0.000000534 0.000002823 0.000025037-0.000003907 0.000043638
 0.000014769-0.000051742-0.000055353
      71
-0.000000218 0.000001074 0.000000623 0.000049921 0.000041279-0.000013347
-0.000019165-0.000006494 0.000042502
      72
-0.000000136 0.000001074 0.000000655 0.000049891 0.000041449-0.000012968
-0.000017660-0.000006126 0.000039989
      73
 0.000000019 0.000001152 0.000000741 0.000049730 0.000041929-0.000011632
-0.000013719-0.000005121 0.000033050
      74
 0.000000280 0.000001305 0.000000884 0.000049457 0.000042612-0.000008981
-0.000008752-0.000003672 0.000022988
      75
 0.000000661 0.000001505 0.000001078 0.000049126 0.000043346-0.000005046
-0.000004244-0.000002066 0.000011730
      76
 0.000001098 0.000001290 0.000001696 0.000048818 0.000043982-0.000000642
-0.000001053-0.000000621 0.000001492
      77
 0.000001461 0.000001461 0.000001825 0.000048611 0.000044405 0.000002853
 0.000000701 0.000000379-0.000005655
      78
 0.000001611 0.000001526 0.000001860 0.000048549 0.000044553 0.000004185
 0.000001242 0.000000739-0.000008230
Norm of the difference between old and new effective charges:    0.00000000000000000000
Norm of the difference between old and new force-constants:   0.02534752740273600938
 Broadening   0.0000
       1
-0.000000000 0.000000000-0.000000000 0.000006101 0.000008278 0.000000290
 0.000350312 0.000373247-0.000014847
       2
 0.000000057 0.000000256 0.000001218 0.000008533 0.000009503 0.000000868
 0.000336523 0.000362934-0.000013719
       3
 0.000000243 0.000000756 0.000003292 0.000009480 0.000015632 0.000002603
 0.000309302 0.000325069-0.000010457
       4
 0.000000614 0.000000997 0.000003714 0.000008876 0.000021651 0.000005480
 0.000277610 0.000263169-0.000005384
       5
 0.000001121 0.000000757 0.000003040 0.000008322 0.000009442 0.000021931
 0.000224229 0.000205421 0.000001076
       6
 0.000001553 0.000000237 0.000002777 0.000007486 0.000014208 0.000014768
 0.000008507 0.000160375 0.000150954
       7
 0.000001646-0.000000238 0.000002777 0.000019393 0.000005852 0.000003066
 0.000016499 0.000095143 0.000100058
       8
-0.000000216 0.000001065 0.000002797 0.000023870 0.000003227 0.000024773
-0.000006437 0.000036106 0.000051883
       9
-0.000000476 0.000000850 0.000002810 0.000026327-0.000000046 0.000032957
-0.000005867-0.000010775 0.000005001
      10
-0.000000439 0.000000601 0.000002820 0.000026049-0.000002821 0.000040213
 0.000006077-0.000041056-0.000036653
      11
-0.000000410 0.000000534 0.000002823 0.000025037-0.000003907 0.000043638
 0.000014769-0.000051742-0.000055353
      12
-0.000000305 0.000000629 0.000002730 0.000027267-0.000002392 0.000043547
 0.000015775-0.000049160-0.000049527
      13
 0.000000012 0.000000886 0.000002560 0.000033042 0.000000832 0.000043484
 0.000017826-0.000040697-0.000035689
      14
 0.000001218 0.000000515 0.000002375 0.000040062 0.000043828 0.000003016
 0.000018555-0.000016195-0.000031733
      15
 0.000001498 0.000001098 0.000002127 0.000045694 0.000044591 0.000002689
 0.000015455-0.000006169-0.000017148
      16
 0.000001611 0.000001526 0.000001860 0.000048549 0.000044553 0.000004185
 0.000001242 0.000000739-0.000008230
      17
 0.000001613 0.000001345 0.000001981 0.000046061 0.000045170 0.000000289
-0.000002706 0.000028636-0.000010087
      18
 0.000001750 0.000001165 0.000002124 0.000042221 0.000043990 0.000002202
-0.000002745 0.000056647-0.000003335
      19
 0.000002107 0.000001016 0.000002324 0.000036836 0.000040946 0.000005895
 0.000001667 0.000085861 0.000015280
      20
 0.000002534 0.000000958 0.000002568 0.000030236 0.000009212 0.000036126
 0.000009694 0.000047422 0.000115941
      21
 0.000002676 0.000001050 0.000002813 0.000023253 0.000011378 0.000019172
 0.000029729 0.000091972 0.000146879
      22
 0.000002315 0.000001294 0.000003068 0.000016763 0.000012406 0.000027285
 0.000022087 0.000145120 0.000179317
      23
 0.000001589 0.000001571 0.000003542 0.000011304 0.000012772 0.000031154
 0.000201603 0.000013686 0.000213792
      24
 0.000000826 0.000001673 0.000004576 0.000012948 0.000007110 0.000028792
 0.000256042 0.000249864 0.000005139
      25
 0.000000286 0.000001446 0.000005347 0.000012874 0.000021567 0.000003932
 0.000303776 0.000285558-0.000002754
      26
 0.000000041 0.000000909 0.000003968 0.000011861 0.000013614 0.000001858
 0.000317565 0.000341080-0.000009177
      27
-0.000000007 0.000000289 0.000001300 0.000008076 0.000009666 0.000000674
 0.000341210 0.000364981-0.000013382
      28
-0.000000000 0.000000000-0.000000000 0.000006101 0.000008278 0.000000290
 0.000350312 0.000373247-0.000014847
      29
 0.000000890 0.000000381-0.000000113 0.000006071 0.000008646 0.000000376
 0.000340797 0.000371749-0.000013998
      30
 0.000003369 0.000001211-0.000000067 0.000005993 0.000009712 0.000000498
 0.000314118 0.000367540-0.000011617
      31
 0.000006915 0.000002412 0.000000411 0.000005895 0.000011321 0.000000267
 0.000275530 0.000361437-0.000008174
      32
 0.000010819 0.000003777 0.000001791 0.000005787 0.000013165-0.000000870
 0.000354661 0.000232668-0.000004347
      33
 0.000014419 0.000005138 0.000005403 0.000014759 0.000004658-0.000003396
 0.000348589 0.000194032-0.000000894
      34
 0.000017519 0.000006635 0.000004857 0.000015257 0.000008241-0.000007057
 0.000344427 0.000167288 0.000001497
      35
 0.000012219 0.000035206-0.000001145-0.000000430 0.000010415-0.000009228
 0.000342953 0.000157742 0.000002351
      36
-0.000001000 0.000018488-0.000000448 0.000027249 0.000011028-0.000008192
 0.000331941 0.000154642 0.000002691
      37
-0.000000679-0.000000403 0.000022640 0.000015417 0.000014271-0.000005300
 0.000296430 0.000150665 0.000003749
      38
-0.000000307-0.000000213 0.000008607 0.000017583 0.000016919-0.000001118
 0.000249549 0.000138780 0.000005604
      39
 0.000000088 0.000000051 0.000005254 0.000012064 0.000003658 0.000012738
 0.000200417 0.000008267 0.000116049
      40
 0.000000459 0.000000297 0.000003603 0.000006717 0.000008413 0.000005557
 0.000011588 0.000150427 0.000087065
      41
 0.000000765 0.000000441 0.000002213 0.000002673 0.000012724-0.000001583
 0.000015224 0.000101873 0.000056070
      42
 0.000000983 0.000000972 0.000000457-0.000000112 0.000016333 0.000018700
-0.000006613 0.000058488 0.000026287
      43
 0.000001119-0.000000037 0.000000386-0.000001994 0.000019058 0.000021547
-0.000007804 0.000024349-0.000000150
      44
 0.000001187-0.000000702 0.000000301-0.000003163 0.000020717 0.000023442
-0.000003849 0.000003169-0.000022324
      45
 0.000001208-0.000000935 0.000000265-0.000003574 0.000021235 0.000024144
 0.000000455-0.000002828-0.000034146
      46
 0.000001217-0.000000808 0.000000359-0.000002376 0.000023405 0.000026054
-0.000000488 0.000001325-0.000034110
      47
 0.000001214-0.000000505 0.000000565 0.000029282-0.000000001 0.000031024
-0.000003030 0.000012002-0.000033252
      48
-0.000000223 0.000001135 0.000000740 0.000037122 0.000037031 0.000000693
-0.000007884 0.000026284-0.000029977
      49
-0.000000132 0.000000953 0.000000838 0.000044588 0.000041406-0.000003156
-0.000014919-0.000020903 0.000038233
      50
-0.000000218 0.000001074 0.000000623 0.000049921 0.000041279-0.000013347
-0.000019165-0.000006494 0.000042502
      51
 0.000000123 0.000000868 0.000000985 0.000046996 0.000041814-0.000006749
-0.000003201-0.000031584 0.000048266
      52
 0.000000713 0.000001112 0.000001069 0.000042949 0.000041162-0.000005272
 0.000003808 0.000057062-0.000032104
      53
 0.000001472 0.000001290 0.000001272 0.000037987 0.000039043-0.000003625
 0.000011888 0.000070976-0.000023813
      54
 0.000001346 0.000002297 0.000001469 0.000032353-0.000000800 0.000035415
 0.000018482 0.000091944-0.000007038
      55
 0.000001249 0.000003089 0.000001518 0.000026259 0.000003447 0.000022058
 0.000030509 0.000120976 0.000016829
      56
 0.000000996 0.000001334 0.000003778 0.000008980 0.000019854 0.000022579
 0.000024793 0.000157456 0.000045152
      57
 0.000000613 0.000000941 0.000004338 0.000015348 0.000013268 0.000021152
 0.000018865 0.000199031 0.000074663
      58
 0.000000147 0.000000459 0.000004850 0.000021837 0.000019118 0.000006711
 0.000242014 0.000013324 0.000102243
      59
-0.000000335 0.000000032 0.000005870 0.000027609 0.000016954 0.000000572
 0.000281987 0.000125530 0.000008657
      60
-0.000000756-0.000000252 0.000031923 0.000008913 0.000013504-0.000004560
 0.000314465 0.000143067 0.000005183
      61
-0.000001043 0.000034422-0.000000391 0.000011535 0.000010980-0.000008009
 0.000335621 0.000154006 0.000003062
      62
 0.000012219 0.000035206-0.000001145-0.000000430 0.000010415-0.000009228
 0.000342953 0.000157742 0.000002351
      63
 0.000001208-0.000000935 0.000000265-0.000003574 0.000021235 0.000024144
 0.000000455-0.000002828-0.000034146
      64
 0.000001149-0.000000841 0.000000423-0.000003582 0.000021395 0.000025177
 0.000001066-0.000005396-0.000035076
      65
 0.000000970-0.000000587 0.000000860-0.000003607 0.000021848 0.000028037
 0.000002827-0.000012536-0.000037719
      66
 0.000000680-0.000000250 0.000001472 0.000022487-0.000003626 0.000032077
 0.000005508-0.000022689-0.000041667
      67
 0.000000316 0.000000080 0.000002098 0.000023307-0.000003729 0.000036424
 0.000008681-0.000033659-0.000046297
      68
-0.000000045 0.000000335 0.000002566 0.000024108-0.000003812 0.000040209
 0.000011729-0.000043189-0.000050782
      69
-0.000000312 0.000000485 0.000002782 0.000024766-0.000003881 0.000042748
 0.000013952-0.000049535-0.000054111
      70
-0.000000410 0.000000534 0.000002823 0.000025037-0.000003907 0.000043638
 0.000014769-0.000051742-0.000055353
      71
-0.000000218 0.000001074 0.000000623 0.000049921 0.000041279-0.000013347
-0.000019165-0.000006494 0.000042502
      72
-0.000000136 0.000001074 0.000000655 0.000049891 0.000041449-0.000012968
-0.000017660-0.000006126 0.000039989
      73
 0.000000019 0.000001152 0.000000741 0.000049730 0.000041929-0.000011632
-0.000013719-0.000005121 0.000033050
      74
 0.000000280 0.000001305 0.000000884 0.000049457 0.000042612-0.000008981
-0.000008752-0.000003672 0.000022988
      75
 0.000000661 0.000001505 0.000001078 0.000049126 0.000043346-0.000005046
-0.000004244-0.000002066 0.000011730
      76
 0.000001098 0.000001290 0.000001696 0.000048818 0.000043982-0.000000642
-0.000001053-0.000000621 0.000001492
      77
 0.000001461 0.000001461 0.000001825 0.000048611 0.000044405 0.000002853
 0.000000701 0.000000379-0.000005655
      78
 0.000001611 0.000001526 0.000001860 0.000048549 0.000044553 0.000004185
 0.000001242 0.000000739-0.000008230
Norm of the difference between old and new effective charges:    0.00000000000000000000
Norm of the difference between old and new force-constants:   0.02534752740273600938
 Broadening   0.0000
       1
-0.000000000 0.000000000-0.000000000 0.000006101 0.000008278 0.000000290
 0.000350312 0.000373247-0.000014847
       2
 0.000000057 0.000000256 0.000001218 0.000008533 0.000009503 0.000000868
 0.000336523 0.000362934-0.000013719
       3
 0.000000243 0.000000756 0.000003292 0.000009480 0.000015632 0.000002603
 0.000309302 0.000325069-0.000010457
       4
 0.000000614 0.000000997 0.000003714 0.000008876 0.000021651 0.000005480
 0.000277610 0.000263169-0.000005384
       5
 0.000001121 0.000000757 0.000003040 0.000008322 0.000009442 0.000021931
 0.000224229 0.000205421 0.000001076
       6
 0.000001553 0.000000237 0.000002777 0.000007486 0.000014208 0.000014768
 0.000008507 0.000160375 0.000150954
       7
 0.000001646-0.000000238 0.000002777 0.000019393 0.000005852 0.000003066
 0.000016499 0.000095143 0.000100058
       8
-0.000000216 0.000001065 0.000002797 0.000023870 0.000003227 0.000024773
-0.000006437 0.000036106 0.000051883
       9
-0.000000476 0.000000850 0.000002810 0.000026327-0.000000046 0.000032957
-0.000005867-0.000010775 0.000005001
      10
-0.000000439 0.000000601 0.000002820 0.000026049-0.000002821 0.000040213
 0.000006077-0.000041056-0.000036653
      11
-0.000000410 0.000000534 0.000002823 0.000025037-0.000003907 0.000043638
 0.000014769-0.000051742-0.000055353
      12
-0.000000305 0.000000629 0.000002730 0.000027267-0.000002392 0.000043547
 0.000015775-0.000049160-0.000049527
      13
 0.000000012 0.000000886 0.000002560 0.000033042 0.000000832 0.000043484
 0.000017826-0.000040697-0.000035689
      14
 0.000001218 0.000000515 0.000002375 0.000040062 0.000043828 0.000003016
 0.000018555-0.000016195-0.000031733
      15
 0.000001498 0.000001098 0.000002127 0.000045694 0.000044591 0.000002689
 0.000015455-0.000006169-0.000017148
      16
 0.000001611 0.000001526 0.000001860 0.000048549 0.000044553 0.000004185
 0.000001242 0.000000739-0.000008230
      17
 0.000001613 0.000001345 0.000001981 0.000046061 0.000045170 0.000000289
-0.000002706 0.000028636-0.000010087
      18
 0.000001750 0.000001165 0.000002124 0.000042221 0.000043990 0.000002202
-0.000002745 0.000056647-0.000003335
      19
 0.000002107 0.000001016 0.000002324 0.000036836 0.000040946 0.000005895
 0.000001667 0.000085861 0.000015280
      20
 0.000002534 0.000000958 0.000002568 0.000030236 0.000009212 0.000036126
 0.000009694 0.000047422 0.000115941
      21
 0.000002676 0.000001050 0.000002813 0.000023253 0.000011378 0.000019172
 0.000029729 0.000091972 0.000146879
      22
 0.000002315 0.000001294 0.000003068 0.000016763 0.000012406 0.000027285
 0.000022087 0.000145120 0.000179317
      23
 0.000001589 0.000001571 0.000003542 0.000011304 0.000012772 0.000031154
 0.000201603 0.000013686 0.000213792
      24
 0.000000826 0.000001673 0.000004576 0.000012948 0.000007110 0.000028792
 0.000256042 0.000249864 0.000005139
      25
 0.000000286 0.000001446 0.000005347 0.000012874 0.000021567 0.000003932
 0.000303776 0.000285558-0.000002754
      26
 0.000000041 0.000000909 0.000003968 0.000011861 0.000013614 0.000001858
 0.000317565 0.000341080-0.000009177
      27
-0.000000007 0.000000289 0.000001300 0.000008076 0.000009666 0.000000674
 0.000341210 0.000364981-0.000013382
      28
-0.000000000 0.000000000-0.000000000 0.000006101 0.000008278 0.000000290
 0.000350312 0.000373247-0.000014847
      29
 0.000000890 0.000000381-0.000000113 0.000006071 0.000008646 0.000000376
 0.000340797 0.000371749-0.000013998
      30
 0.000003369 0.000001211-0.000000067 0.000005993 0.000009712 0.000000498
 0.000314118 0.000367540-0.000011617
      31
 0.000006915 0.000002412 0.000000411 0.000005895 0.000011321 0.000000267
 0.000275530 0.000361437-0.000008174
      32
 0.000010819 0.000003777 0.000001791 0.000005787 0.000013165-0.000000870
 0.000354661 0.000232668-0.000004347
      33
 0.000014419 0.000005138 0.000005403 0.000014759 0.000004658-0.000003396
 0.000348589 0.000194032-0.000000894
      34
 0.000017519 0.000006635 0.000004857 0.000015257 0.000008241-0.000007057
 0.000344427 0.000167288 0.000001497
      35
 0.000012219 0.000035206-0.000001145-0.000000430 0.000010415-0.000009228
 0.000342953 0.000157742 0.000002351
      36
-0.000001000 0.000018488-0.000000448 0.000027249 0.000011028-0.000008192
 0.000331941 0.000154642 0.000002691
      37
-0.000000679-0.000000403 0.000022640 0.000015417 0.000014271-0.000005300
 0.000296430 0.000150665 0.000003749
      38
-0.000000307-0.000000213 0.000008607 0.000017583 0.000016919-0.000001118
 0.000249549 0.000138780 0.000005604
      39
 0.000000088 0.000000051 0.000005254 0.000012064 0.000003658 0.000012738
 0.000200417 0.000008267 0.000116049
      40
 0.000000459 0.000000297 0.000003603 0.000006717 0.000008413 0.000005557
 0.000011588 0.000150427 0.000087065
      41
 0.000000765 0.000000441 0.000002213 0.000002673 0.000012724-0.000001583
 0.000015224 0.000101873 0.000056070
      42
 0.000000983 0.000000972 0.000000457-0.000000112 0.000016333 0.000018700
-0.000006613 0.000058488 0.000026287
      43
 0.000001119-0.000000037 0.000000386-0.000001994 0.000019058 0.000021547
-0.000007804 0.000024349-0.000000150
      44
 0.000001187-0.000000702 0.000000301-0.000003163 0.000020717 0.000023442
-0.000003849 0.000003169-0.000022324
      45
 0.000001208-0.000000935 0.000000265-0.000003574 0.000021235 0.000024144
 0.000000455-0.000002828-0.000034146
      46
 0.000001217-0.000000808 0.000000359-0.000002376 0.000023405 0.000026054
-0.000000488 0.000001325-0.000034110
      47
 0.000001214-0.000000505 0.000000565 0.000029282-0.000000001 0.000031024
-0.000003030 0.000012002-0.000033252
      48
-0.000000223 0.000001135 0.000000740 0.000037122 0.000037031 0.000000693
-0.000007884 0.000026284-0.000029977
      49
-0.000000132 0.000000953 0.000000838 0.000044588 0.000041406-0.000003156
-0.000014919-0.000020903 0.000038233
      50
-0.000000218 0.000001074 0.000000623 0.000049921 0.000041279-0.000013347
-0.000019165-0.000006494 0.000042502
      51
 0.000000123 0.000000868 0.000000985 0.000046996 0.000041814-0.000006749
-0.000003201-0.000031584 0.000048266
      52
 0.000000713 0.000001112 0.000001069 0.000042949 0.000041162-0.000005272
 0.000003808 0.000057062-0.000032104
      53
 0.000001472 0.000001290 0.000001272 0.000037987 0.000039043-0.000003625
 0.000011888 0.000070976-0.000023813
      54
 0.000001346 0.000002297 0.000001469 0.000032353-0.000000800 0.000035415
 0.000018482 0.000091944-0.000007038
      55
 0.000001249 0.000003089 0.000001518 0.000026259 0.000003447 0.000022058
 0.000030509 0.000120976 0.000016829
      56
 0.000000996 0.000001334 0.000003778 0.000008980 0.000019854 0.000022579
 0.000024793 0.000157456 0.000045152
      57
 0.000000613 0.000000941 0.000004338 0.000015348 0.000013268 0.000021152
 0.000018865 0.000199031 0.000074663
      58
 0.000000147 0.000000459 0.000004850 0.000021837 0.000019118 0.000006711
 0.000242014 0.000013324 0.000102243
      59
-0.000000335 0.000000032 0.000005870 0.000027609 0.000016954 0.000000572
 0.000281987 0.000125530 0.000008657
      60
-0.000000756-0.000000252 0.000031923 0.000008913 0.000013504-0.000004560
 0.000314465 0.000143067 0.000005183
      61
-0.000001043 0.000034422-0.000000391 0.000011535 0.000010980-0.000008009
 0.000335621 0.000154006 0.000003062
      62
 0.000012219 0.000035206-0.000001145-0.000000430 0.000010415-0.000009228
 0.000342953 0.000157742 0.000002351
      63
 0.000001208-0.000000935 0.000000265-0.000003574 0.000021235 0.000024144
 0.000000455-0.000002828-0.000034146
      64
 0.000001149-0.000000841 0.000000423-0.000003582 0.000021395 0.000025177
 0.000001066-0.000005396-0.000035076
      65
 0.000000970-0.000000587 0.000000860-0.000003607 0.000021848 0.000028037
 0.000002827-0.000012536-0.000037719
      66
 0.000000680-0.000000250 0.000001472 0.000022487-0.000003626 0.000032077
 0.000005508-0.000022689-0.000041667
      67
 0.000000316 0.000000080 0.000002098 0.000023307-0.000003729 0.000036424
 0.000008681-0.000033659-0.000046297
      68
-0.000000045 0.000000335 0.000002566 0.000024108-0.000003812 0.000040209
 0.000011729-0.000043189-0.000050782
      69
-0.000000312 0.000000485 0.000002782 0.000024766-0.000003881 0.000042748
 0.000013952-0.000049535-0.000054111
      70
-0.000000410 0.000000534 0.000002823 0.000025037-0.000003907 0.000043638
 0.000014769-0.000051742-0.000055353
      71
-0.000000218 0.000001074 0.000000623 0.000049921 0.000041279-0.000013347
-0.000019165-0.000006494 0.000042502
      72
-0.000000136 0.000001074 0.000000655 0.000049891 0.000041449-0.000012968
-0.000017660-0.000006126 0.000039989
      73
 0.000000019 0.000001152 0.000000741 0.000049730 0.000041929-0.000011632
-0.000013719-0.000005121 0.000033050
      74
 0.000000280 0.000001305 0.000000884 0.000049457 0.000042612-0.000008981
-0.000008752-0.000003672 0.000022988
      75
 0.000000661 0.000001505 0.000001078 0.000049126 0.000043346-0.000005046
-0.000004244-0.000002066 0.000011730
      76
 0.000001098 0.000001290 0.000001696 0.000048818 0.000043982-0.000000642
-0.000001053-0.000000621 0.000001492
      77
 0.000001461 0.000001461 0.000001825 0.000048611 0.000044405 0.000002853
 0.000000701 0.000000379-0.000005655
      78
 0.000001611 0.000001526 0.000001860 0.000048549 0.000044553 0.000004185
 0.000001242 0.000000739-0.000008230

     MATDYN       :      0.54s CPU      0.61s WALL


   This run was terminated on:   1:56:17  28Jun2022            

=------------------------------------------------------------------------------=
   JOB DONE.
=------------------------------------------------------------------------------=
