
     Program PHONON v.7.4.1 starts on 15Mar2026 at 23: 0: 3 

     This program is part of the open-source Quantum ESPRESSO suite
     for quantum simulation of materials; please cite
         "P. Giannozzi et al., J. Phys.:Condens. Matter 21 395502 (2009);
         "P. Giannozzi et al., J. Phys.:Condens. Matter 29 465901 (2017);
         "P. Giannozzi et al., J. Chem. Phys. 152 154105 (2020);
          URL http://www.quantum-espresso.org", 
     in publications or presentations arising from this work. More details at
     http://www.quantum-espresso.org/quote

     Parallel version (MPI & OpenMP), running on      64 processor cores
     Number of MPI processes:                64
     Threads/MPI process:                     1

     MPI processes distributed on     1 nodes
     225149 MiB available memory on the printing compute node when the environment starts
 
     Reading input from epmat.in

     Reading xml data from directory:

     ./pwscf.save/
 
     K-points division:     npool     =      64
     Subspace diagonalization in iterative solution of the eigenvalue problem:
     a serial algorithm will be used

     file B.pbe-n-kjpaw_psl.0.1.upf: wavefunction(s)  2P renormalized
     file Mg.pbe-n-kjpaw_psl.0.3.0.upf: wavefunction(s)  3S renormalized

     IMPORTANT: XC functional enforced from input :
     Exchange-correlation= PBE
                           (   1   4   3   4   0   0   0)
     Any further DFT definition will be discarded
     Please, verify this is what you really want

 
     G-vector sticks info
     --------------------
     sticks:   dense  smooth     PW     G-vecs:    dense   smooth      PW
     Sum         649     313    109                15395     5449    1011
 
     Using Slab Decomposition
 

     Check: negative core charge=   -0.000006
     Message from routine divide_et_impera:
     suboptimal parallelization: some nodes have no k-points
     Reading collected, re-writing distributed wavefunctions in ./


     Dynamical matrices for ( 4, 4, 3)  uniform grid of q-points
     With a half shift  0  0  1
     (   8 q-points):
       N         xq(1)         xq(2)         xq(3) 
       1   0.000000000   0.000000000   0.145452854
       2   0.000000000   0.000000000  -0.436358562
       3   0.000000000   0.288675135   0.145452854
       4   0.000000000   0.288675135  -0.436358562
       5   0.000000000  -0.577350269   0.145452854
       6   0.000000000  -0.577350269  -0.436358562
       7   0.250000000   0.433012702   0.145452854
       8   0.250000000   0.433012702  -0.436358562
     Because shifted q grid is used, q2r will not work !

     Saving dvscf to file. Distribute only q points, not irreducible representations.

     Calculation of q =    0.0000000   0.0000000   0.1454529
     Message from routine kpoint_grid:
     ATTENTION: skip check of k-points equivalence
     [opt_tetra]  Optimized tetrahedron method is used.
     Message from routine divide_et_impera:
     suboptimal parallelization: some nodes have no k-points
 
     G-vector sticks info
     --------------------
     sticks:   dense  smooth     PW     G-vecs:    dense   smooth      PW
     Sum         649     313    121                15395     5449    1179
 
     Using Slab Decomposition
 

     Title: 
     Electron-phonon matrix                                                     


     bravais-lattice index     =            0
     lattice parameter (alat)  =       5.8042  a.u.
     unit-cell volume          =     194.0373 (a.u.)^3
     number of atoms/cell      =            3
     number of atomic types    =            2
     number of electrons       =         8.00
     number of Kohn-Sham states=            8
     kinetic-energy cutoff     =      35.0000  Ry
     charge density cutoff     =     280.0000  Ry
     Exchange-correlation= PBE
                           (   1   4   3   4   0   0   0)

     celldm(1)=   5.804205  celldm(2)=   0.000000  celldm(3)=   0.000000
     celldm(4)=   0.000000  celldm(5)=   0.000000  celldm(6)=   0.000000

     crystal axes: (cart. coord. in units of alat)
               a(1) = (   1.000000   0.000000   0.000000 )  
               a(2) = (  -0.500000   0.866025   0.000000 )  
               a(3) = (   0.000000   0.000000   1.145847 )  

     reciprocal axes: (cart. coord. in units 2 pi/alat)
               b(1) = (  1.000000  0.577350  0.000000 )  
               b(2) = (  0.000000  1.154701  0.000000 )  
               b(3) = (  0.000000  0.000000  0.872717 )  


     PseudoPot. # 1 for B  read from file:
     ./B.pbe-n-kjpaw_psl.0.1.upf
     MD5 check sum: b4345a612e0782cca08559f453f3313f
     Pseudo is Projector augmented-wave + core cor, Zval =  3.0
     Generated using "atomic" code by A. Dal Corso  v.5.0.99 svn rev. 10869
     Shape of augmentation charge: BESSEL
     Using radial grid of 1059 points,  4 beta functions with: 
                l(1) =   0
                l(2) =   0
                l(3) =   1
                l(4) =   1
     Q(r) pseudized with 0 coefficients 


     PseudoPot. # 2 for Mg read from file:
     ./Mg.pbe-n-kjpaw_psl.0.3.0.upf
     MD5 check sum: 9eaefceb6cf3903db1b93e4e5c6adf9a
     Pseudo is Projector augmented-wave + core cor, Zval =  2.0
     Generated using "atomic" code by A. Dal Corso  v.5.0.99 svn rev. 10869
     Shape of augmentation charge: PSQ
     Using radial grid of 1129 points,  4 beta functions with: 
                l(1) =   0
                l(2) =   0
                l(3) =   1
                l(4) =   1
     Q(r) pseudized with 0 coefficients 


     atomic species   valence    mass     pseudopotential
     B                 3.00    10.81100     B ( 1.00)
     Mg                2.00    24.30500     Mg( 1.00)

     24 Sym. Ops., with inversion, found



   Cartesian axes

     site n.     atom                  positions (alat units)
         1        Mg     tau(   1) = (   0.0000000   0.0000000   0.0000000  )
         2        B      tau(   2) = (  -0.0000000   0.5773503   0.5729233  )
         3        B      tau(   3) = (   0.5000000   0.2886751   0.5729233  )

     number of k points=    96 (tetrahedron method)
                       cart. coord. in units 2pi/alat
        k(    1) = (   0.0000000   0.0000000   0.0000000), wk =   0.0416667
        k(    2) = (   0.0000000   0.0000000   0.1454529), wk =   0.0000000
        k(    3) = (   0.0000000   0.0000000   0.2909057), wk =   0.0416667
        k(    4) = (   0.0000000   0.0000000   0.4363586), wk =   0.0000000
        k(    5) = (   0.0000000   0.0000000  -0.2909057), wk =   0.0416667
        k(    6) = (   0.0000000   0.0000000  -0.1454529), wk =   0.0000000
        k(    7) = (   0.0000000   0.2886751   0.0000000), wk =   0.0416667
        k(    8) = (   0.0000000   0.2886751   0.1454529), wk =   0.0000000
        k(    9) = (   0.0000000   0.2886751   0.2909057), wk =   0.0416667
        k(   10) = (   0.0000000   0.2886751   0.4363586), wk =   0.0000000
        k(   11) = (   0.0000000   0.2886751  -0.2909057), wk =   0.0416667
        k(   12) = (   0.0000000   0.2886751  -0.1454529), wk =   0.0000000
        k(   13) = (   0.0000000  -0.5773503   0.0000000), wk =   0.0416667
        k(   14) = (   0.0000000  -0.5773503   0.1454529), wk =   0.0000000
        k(   15) = (   0.0000000  -0.5773503   0.2909057), wk =   0.0416667
        k(   16) = (   0.0000000  -0.5773503   0.4363586), wk =   0.0000000
        k(   17) = (   0.0000000  -0.5773503  -0.2909057), wk =   0.0416667
        k(   18) = (   0.0000000  -0.5773503  -0.1454529), wk =   0.0000000
        k(   19) = (   0.0000000  -0.2886751   0.0000000), wk =   0.0416667
        k(   20) = (   0.0000000  -0.2886751   0.1454529), wk =   0.0000000
        k(   21) = (   0.0000000  -0.2886751   0.2909057), wk =   0.0416667
        k(   22) = (   0.0000000  -0.2886751   0.4363586), wk =   0.0000000
        k(   23) = (   0.0000000  -0.2886751  -0.2909057), wk =   0.0416667
        k(   24) = (   0.0000000  -0.2886751  -0.1454529), wk =   0.0000000
        k(   25) = (   0.2500000   0.1443376   0.0000000), wk =   0.0416667
        k(   26) = (   0.2500000   0.1443376   0.1454529), wk =   0.0000000
        k(   27) = (   0.2500000   0.1443376   0.2909057), wk =   0.0416667
        k(   28) = (   0.2500000   0.1443376   0.4363586), wk =   0.0000000
        k(   29) = (   0.2500000   0.1443376  -0.2909057), wk =   0.0416667
        k(   30) = (   0.2500000   0.1443376  -0.1454529), wk =   0.0000000
        k(   31) = (   0.2500000   0.4330127   0.0000000), wk =   0.0416667
        k(   32) = (   0.2500000   0.4330127   0.1454529), wk =   0.0000000
        k(   33) = (   0.2500000   0.4330127   0.2909057), wk =   0.0416667
        k(   34) = (   0.2500000   0.4330127   0.4363586), wk =   0.0000000
        k(   35) = (   0.2500000   0.4330127  -0.2909057), wk =   0.0416667
        k(   36) = (   0.2500000   0.4330127  -0.1454529), wk =   0.0000000
        k(   37) = (   0.2500000  -0.4330127   0.0000000), wk =   0.0416667
        k(   38) = (   0.2500000  -0.4330127   0.1454529), wk =   0.0000000
        k(   39) = (   0.2500000  -0.4330127   0.2909057), wk =   0.0416667
        k(   40) = (   0.2500000  -0.4330127   0.4363586), wk =   0.0000000
        k(   41) = (   0.2500000  -0.4330127  -0.2909057), wk =   0.0416667
        k(   42) = (   0.2500000  -0.4330127  -0.1454529), wk =   0.0000000
        k(   43) = (   0.2500000  -0.1443376   0.0000000), wk =   0.0416667
        k(   44) = (   0.2500000  -0.1443376   0.1454529), wk =   0.0000000
        k(   45) = (   0.2500000  -0.1443376   0.2909057), wk =   0.0416667
        k(   46) = (   0.2500000  -0.1443376   0.4363586), wk =   0.0000000
        k(   47) = (   0.2500000  -0.1443376  -0.2909057), wk =   0.0416667
        k(   48) = (   0.2500000  -0.1443376  -0.1454529), wk =   0.0000000
        k(   49) = (  -0.5000000  -0.2886751   0.0000000), wk =   0.0416667
        k(   50) = (  -0.5000000  -0.2886751   0.1454529), wk =   0.0000000
        k(   51) = (  -0.5000000  -0.2886751   0.2909057), wk =   0.0416667
        k(   52) = (  -0.5000000  -0.2886751   0.4363586), wk =   0.0000000
        k(   53) = (  -0.5000000  -0.2886751  -0.2909057), wk =   0.0416667
        k(   54) = (  -0.5000000  -0.2886751  -0.1454529), wk =   0.0000000
        k(   55) = (  -0.5000000  -0.0000000   0.0000000), wk =   0.0416667
        k(   56) = (  -0.5000000  -0.0000000   0.1454529), wk =   0.0000000
        k(   57) = (  -0.5000000  -0.0000000   0.2909057), wk =   0.0416667
        k(   58) = (  -0.5000000  -0.0000000   0.4363586), wk =   0.0000000
        k(   59) = (  -0.5000000  -0.0000000  -0.2909057), wk =   0.0416667
        k(   60) = (  -0.5000000  -0.0000000  -0.1454529), wk =   0.0000000
        k(   61) = (  -0.5000000  -0.8660254   0.0000000), wk =   0.0416667
        k(   62) = (  -0.5000000  -0.8660254   0.1454529), wk =   0.0000000
        k(   63) = (  -0.5000000  -0.8660254   0.2909057), wk =   0.0416667
        k(   64) = (  -0.5000000  -0.8660254   0.4363586), wk =   0.0000000
        k(   65) = (  -0.5000000  -0.8660254  -0.2909057), wk =   0.0416667
        k(   66) = (  -0.5000000  -0.8660254  -0.1454529), wk =   0.0000000
        k(   67) = (  -0.5000000  -0.5773503   0.0000000), wk =   0.0416667
        k(   68) = (  -0.5000000  -0.5773503   0.1454529), wk =   0.0000000
        k(   69) = (  -0.5000000  -0.5773503   0.2909057), wk =   0.0416667
        k(   70) = (  -0.5000000  -0.5773503   0.4363586), wk =   0.0000000
        k(   71) = (  -0.5000000  -0.5773503  -0.2909057), wk =   0.0416667
        k(   72) = (  -0.5000000  -0.5773503  -0.1454529), wk =   0.0000000
        k(   73) = (  -0.2500000  -0.1443376   0.0000000), wk =   0.0416667
        k(   74) = (  -0.2500000  -0.1443376   0.1454529), wk =   0.0000000
        k(   75) = (  -0.2500000  -0.1443376   0.2909057), wk =   0.0416667
        k(   76) = (  -0.2500000  -0.1443376   0.4363586), wk =   0.0000000
        k(   77) = (  -0.2500000  -0.1443376  -0.2909057), wk =   0.0416667
        k(   78) = (  -0.2500000  -0.1443376  -0.1454529), wk =   0.0000000
        k(   79) = (  -0.2500000   0.1443376   0.0000000), wk =   0.0416667
        k(   80) = (  -0.2500000   0.1443376   0.1454529), wk =   0.0000000
        k(   81) = (  -0.2500000   0.1443376   0.2909057), wk =   0.0416667
        k(   82) = (  -0.2500000   0.1443376   0.4363586), wk =   0.0000000
        k(   83) = (  -0.2500000   0.1443376  -0.2909057), wk =   0.0416667
        k(   84) = (  -0.2500000   0.1443376  -0.1454529), wk =   0.0000000
        k(   85) = (  -0.2500000  -0.7216878   0.0000000), wk =   0.0416667
        k(   86) = (  -0.2500000  -0.7216878   0.1454529), wk =   0.0000000
        k(   87) = (  -0.2500000  -0.7216878   0.2909057), wk =   0.0416667
        k(   88) = (  -0.2500000  -0.7216878   0.4363586), wk =   0.0000000
        k(   89) = (  -0.2500000  -0.7216878  -0.2909057), wk =   0.0416667
        k(   90) = (  -0.2500000  -0.7216878  -0.1454529), wk =   0.0000000
        k(   91) = (  -0.2500000  -0.4330127   0.0000000), wk =   0.0416667
        k(   92) = (  -0.2500000  -0.4330127   0.1454529), wk =   0.0000000
        k(   93) = (  -0.2500000  -0.4330127   0.2909057), wk =   0.0416667
        k(   94) = (  -0.2500000  -0.4330127   0.4363586), wk =   0.0000000
        k(   95) = (  -0.2500000  -0.4330127  -0.2909057), wk =   0.0416667
        k(   96) = (  -0.2500000  -0.4330127  -0.1454529), wk =   0.0000000

     Dense  grid:    15395 G-vectors     FFT dimensions: (  32,  32,  36)

     Smooth grid:     5449 G-vectors     FFT dimensions: (  24,  24,  25)

     Estimated max dynamical RAM per process >       7.21 MB

     Estimated total dynamical RAM >     461.61 MB

     Check: negative core charge=   -0.000006

     The potential is recalculated from file :
     ./_ph0/pwscf.q_1/pwscf.save/charge-density

     Starting wfcs are   12 atomic wfcs
     Checking if some PAW data can be deallocated... 

     Band Structure Calculation
     Davidson diagonalization with overlap

     ethr =  1.25E-10,  avg # of iterations = 19.3

     total cpu time spent up to now is        0.4 secs

     End of band structure calculation

          k = 0.0000 0.0000 0.0000 (   709 PWs)   bands (ev):

    -4.7856   4.7169   8.0859   8.0859   9.3182  14.0810  14.0810  15.9413

          k = 0.0000 0.0000 0.1455 (   697 PWs)   bands (ev):

    -4.5497   3.2122   8.1741   8.1741  11.3828  14.1562  14.1562  15.8936

          k = 0.0000 0.0000 0.2909 (   690 PWs)   bands (ev):

    -3.9413   1.1725   8.3605   8.3605  14.3197  14.3197  15.0532  15.8003

          k = 0.0000 0.0000 0.4364 (   684 PWs)   bands (ev):

    -3.4999   0.2155   8.4616   8.4616  14.4076  14.4076  15.7557  17.7397

          k = 0.0000 0.0000-0.2909 (   690 PWs)   bands (ev):

    -3.9413   1.1725   8.3605   8.3605  14.3197  14.3197  15.0532  15.8003

          k = 0.0000 0.0000-0.1455 (   697 PWs)   bands (ev):

    -4.5497   3.2122   8.1741   8.1741  11.3828  14.1562  14.1562  15.8936

          k = 0.0000 0.2887 0.0000 (   681 PWs)   bands (ev):

    -3.6967   4.3221   5.7684   6.5101  10.2984  13.1165  14.5810  17.0309

          k = 0.0000 0.2887 0.1455 (   677 PWs)   bands (ev):

    -3.4736   4.2713   4.5113   6.5843  12.0431  13.1161  13.7450  18.2343

          k = 0.0000 0.2887 0.2909 (   680 PWs)   bands (ev):

    -2.9073   2.3497   4.7869   6.7418  11.5392  13.6809  16.1211  18.0281

          k = 0.0000 0.2887 0.4364 (   690 PWs)   bands (ev):

    -2.5101   1.4487   4.9711   6.8246  10.9392  13.9994  17.7964  18.2336

          k = 0.0000 0.2887-0.2909 (   680 PWs)   bands (ev):

    -2.9073   2.3497   4.7869   6.7418  11.5392  13.6809  16.1211  18.0281

          k = 0.0000 0.2887-0.1455 (   677 PWs)   bands (ev):

    -3.4736   4.2713   4.5113   6.5843  12.0431  13.1161  13.7450  18.2343

          k = 0.0000-0.5774 0.0000 (   676 PWs)   bands (ev):

    -0.8559  -0.1616   5.5309   7.8975  10.7860  11.6276  13.0221  14.8253

          k = 0.0000-0.5774 0.1455 (   662 PWs)   bands (ev):

    -0.6675   0.0267   5.5994   6.6607   9.0584  12.3432  14.8161  16.3850

          k = 0.0000-0.5774 0.2909 (   670 PWs)   bands (ev):

    -0.1967   0.4723   4.9116   5.7426   7.1851  13.0425  17.1668  18.1844

          k = 0.0000-0.5774 0.4364 (   676 PWs)   bands (ev):

     0.1220   0.7477   4.1205   5.8185   6.4053  13.4894  16.5345  16.6638

          k = 0.0000-0.5774-0.2909 (   670 PWs)   bands (ev):

    -0.1967   0.4723   4.9116   5.7426   7.1851  13.0425  17.1668  18.1844

          k = 0.0000-0.5774-0.1455 (   662 PWs)   bands (ev):

    -0.6675   0.0267   5.5994   6.6607   9.0584  12.3432  14.8161  16.3850

          k = 0.0000-0.2887 0.0000 (   681 PWs)   bands (ev):

    -3.6967   4.3221   5.7684   6.5101  10.2984  13.1165  14.5810  17.0309

          k = 0.0000-0.2887 0.1455 (   677 PWs)   bands (ev):

    -3.4736   4.2713   4.5113   6.5843  12.0431  13.1161  13.7450  18.2343

          k = 0.0000-0.2887 0.2909 (   680 PWs)   bands (ev):

    -2.9073   2.3497   4.7869   6.7418  11.5392  13.6809  16.1211  18.0281

          k = 0.0000-0.2887 0.4364 (   690 PWs)   bands (ev):

    -2.5101   1.4487   4.9711   6.8246  10.9392  13.9994  17.7964  18.2336

          k = 0.0000-0.2887-0.2909 (   680 PWs)   bands (ev):

    -2.9073   2.3497   4.7869   6.7418  11.5392  13.6809  16.1211  18.0281

          k = 0.0000-0.2887-0.1455 (   677 PWs)   bands (ev):

    -3.4736   4.2713   4.5113   6.5843  12.0431  13.1161  13.7450  18.2343

          k = 0.2500 0.1443 0.0000 (   681 PWs)   bands (ev):

    -3.6967   4.3221   5.7684   6.5101  10.2984  13.1165  14.5810  17.0309

          k = 0.2500 0.1443 0.1455 (   677 PWs)   bands (ev):

    -3.4736   4.2713   4.5113   6.5843  12.0431  13.1161  13.7450  18.2343

          k = 0.2500 0.1443 0.2909 (   680 PWs)   bands (ev):

    -2.9073   2.3497   4.7869   6.7418  11.5392  13.6809  16.1211  18.0281

          k = 0.2500 0.1443 0.4364 (   690 PWs)   bands (ev):

    -2.5101   1.4487   4.9711   6.8246  10.9392  13.9994  17.7964  18.2336

          k = 0.2500 0.1443-0.2909 (   680 PWs)   bands (ev):

    -2.9073   2.3497   4.7869   6.7418  11.5392  13.6809  16.1211  18.0281

          k = 0.2500 0.1443-0.1455 (   677 PWs)   bands (ev):

    -3.4736   4.2713   4.5113   6.5843  12.0431  13.1161  13.7450  18.2343

          k = 0.2500 0.4330 0.0000 (   673 PWs)   bands (ev):

    -1.5955   1.9992   3.1104   7.7211  11.4346  12.3899  14.7394  16.0952

          k = 0.2500 0.4330 0.1455 (   684 PWs)   bands (ev):

    -1.3965   2.1623   3.2397   6.3799  10.0624  14.1966  14.9079  16.2485

          k = 0.2500 0.4330 0.2909 (   678 PWs)   bands (ev):

    -0.9037   2.5530   3.5246   4.5533   8.3547  13.1327  16.8169  17.8007

          k = 0.2500 0.4330 0.4364 (   674 PWs)   bands (ev):

    -0.5748   2.7987   3.7030   3.7188   7.6358  12.4494  17.2204  18.2374

          k = 0.2500 0.4330-0.2909 (   678 PWs)   bands (ev):

    -0.9037   2.5530   3.5246   4.5533   8.3547  13.1327  16.8169  17.8007

          k = 0.2500 0.4330-0.1455 (   684 PWs)   bands (ev):

    -1.3965   2.1623   3.2397   6.3799  10.0624  14.1966  14.9079  16.2485

          k = 0.2500-0.4330 0.0000 (   673 PWs)   bands (ev):

    -1.5955   1.9992   3.1104   7.7211  11.4346  12.3899  14.7394  16.0952

          k = 0.2500-0.4330 0.1455 (   684 PWs)   bands (ev):

    -1.3965   2.1623   3.2397   6.3799  10.0624  14.1966  14.9079  16.2485

          k = 0.2500-0.4330 0.2909 (   678 PWs)   bands (ev):

    -0.9037   2.5530   3.5246   4.5533   8.3547  13.1327  16.8169  17.8007

          k = 0.2500-0.4330 0.4364 (   674 PWs)   bands (ev):

    -0.5748   2.7987   3.7030   3.7188   7.6358  12.4494  17.2204  18.2374

          k = 0.2500-0.4330-0.2909 (   678 PWs)   bands (ev):

    -0.9037   2.5530   3.5246   4.5533   8.3547  13.1327  16.8169  17.8007

          k = 0.2500-0.4330-0.1455 (   684 PWs)   bands (ev):

    -1.3965   2.1623   3.2397   6.3799  10.0624  14.1966  14.9079  16.2485

          k = 0.2500-0.1443 0.0000 (   681 PWs)   bands (ev):

    -3.6967   4.3221   5.7684   6.5101  10.2984  13.1165  14.5810  17.0309

          k = 0.2500-0.1443 0.1455 (   677 PWs)   bands (ev):

    -3.4736   4.2713   4.5113   6.5843  12.0431  13.1161  13.7450  18.2343

          k = 0.2500-0.1443 0.2909 (   680 PWs)   bands (ev):

    -2.9073   2.3497   4.7869   6.7418  11.5392  13.6809  16.1211  18.0281

          k = 0.2500-0.1443 0.4364 (   690 PWs)   bands (ev):

    -2.5101   1.4487   4.9711   6.8246  10.9392  13.9994  17.7964  18.2336

          k = 0.2500-0.1443-0.2909 (   680 PWs)   bands (ev):

    -2.9073   2.3497   4.7869   6.7418  11.5392  13.6809  16.1211  18.0281

          k = 0.2500-0.1443-0.1455 (   677 PWs)   bands (ev):

    -3.4736   4.2713   4.5113   6.5843  12.0431  13.1161  13.7450  18.2343

          k =-0.5000-0.2887 0.0000 (   676 PWs)   bands (ev):

    -0.8559  -0.1616   5.5309   7.8975  10.7860  11.6276  13.0221  14.8253

          k =-0.5000-0.2887 0.1455 (   662 PWs)   bands (ev):

    -0.6675   0.0267   5.5994   6.6607   9.0584  12.3432  14.8161  16.3850

          k =-0.5000-0.2887 0.2909 (   670 PWs)   bands (ev):

    -0.1967   0.4723   4.9116   5.7426   7.1851  13.0425  17.1668  18.1844

          k =-0.5000-0.2887 0.4364 (   676 PWs)   bands (ev):

     0.1220   0.7477   4.1205   5.8185   6.4053  13.4894  16.5345  16.6638

          k =-0.5000-0.2887-0.2909 (   670 PWs)   bands (ev):

    -0.1967   0.4723   4.9116   5.7426   7.1851  13.0425  17.1668  18.1844

          k =-0.5000-0.2887-0.1455 (   662 PWs)   bands (ev):

    -0.6675   0.0267   5.5994   6.6607   9.0584  12.3432  14.8161  16.3850

          k =-0.5000-0.0000 0.0000 (   673 PWs)   bands (ev):

    -1.5955   1.9992   3.1104   7.7211  11.4346  12.3899  14.7394  16.0952

          k =-0.5000-0.0000 0.1455 (   684 PWs)   bands (ev):

    -1.3965   2.1623   3.2397   6.3799  10.0624  14.1966  14.9079  16.2485

          k =-0.5000-0.0000 0.2909 (   678 PWs)   bands (ev):

    -0.9037   2.5530   3.5246   4.5533   8.3547  13.1327  16.8169  17.8007

          k =-0.5000-0.0000 0.4364 (   674 PWs)   bands (ev):

    -0.5748   2.7987   3.7030   3.7188   7.6358  12.4494  17.2204  18.2374

          k =-0.5000-0.0000-0.2909 (   678 PWs)   bands (ev):

    -0.9037   2.5530   3.5246   4.5533   8.3547  13.1327  16.8169  17.8007

          k =-0.5000-0.0000-0.1455 (   684 PWs)   bands (ev):

    -1.3965   2.1623   3.2397   6.3799  10.0624  14.1966  14.9079  16.2485

          k =-0.5000-0.8660 0.0000 (   676 PWs)   bands (ev):

    -0.8559  -0.1616   5.5309   7.8975  10.7860  11.6276  13.0221  14.8253

          k =-0.5000-0.8660 0.1455 (   662 PWs)   bands (ev):

    -0.6675   0.0267   5.5994   6.6607   9.0584  12.3432  14.8161  16.3850

          k =-0.5000-0.8660 0.2909 (   670 PWs)   bands (ev):

    -0.1967   0.4723   4.9116   5.7426   7.1851  13.0425  17.1668  18.1844

          k =-0.5000-0.8660 0.4364 (   676 PWs)   bands (ev):

     0.1220   0.7477   4.1205   5.8185   6.4053  13.4894  16.5345  16.6638

          k =-0.5000-0.8660-0.2909 (   670 PWs)   bands (ev):

    -0.1967   0.4723   4.9116   5.7426   7.1851  13.0425  17.1668  18.1844

          k =-0.5000-0.8660-0.1455 (   662 PWs)   bands (ev):

    -0.6675   0.0267   5.5994   6.6607   9.0584  12.3432  14.8161  16.3850

          k =-0.5000-0.5774 0.0000 (   673 PWs)   bands (ev):

    -1.5955   1.9992   3.1104   7.7211  11.4346  12.3899  14.7394  16.0952

          k =-0.5000-0.5774 0.1455 (   684 PWs)   bands (ev):

    -1.3965   2.1623   3.2397   6.3799  10.0624  14.1966  14.9079  16.2485

          k =-0.5000-0.5774 0.2909 (   678 PWs)   bands (ev):

    -0.9037   2.5530   3.5246   4.5533   8.3547  13.1327  16.8169  17.8007

          k =-0.5000-0.5774 0.4364 (   674 PWs)   bands (ev):

    -0.5748   2.7987   3.7030   3.7188   7.6358  12.4494  17.2204  18.2374

          k =-0.5000-0.5774-0.2909 (   678 PWs)   bands (ev):

    -0.9037   2.5530   3.5246   4.5533   8.3547  13.1327  16.8169  17.8007

          k =-0.5000-0.5774-0.1455 (   684 PWs)   bands (ev):

    -1.3965   2.1623   3.2397   6.3799  10.0624  14.1966  14.9079  16.2485

          k =-0.2500-0.1443 0.0000 (   681 PWs)   bands (ev):

    -3.6967   4.3221   5.7684   6.5101  10.2984  13.1165  14.5810  17.0309

          k =-0.2500-0.1443 0.1455 (   677 PWs)   bands (ev):

    -3.4736   4.2713   4.5113   6.5843  12.0431  13.1161  13.7450  18.2343

          k =-0.2500-0.1443 0.2909 (   680 PWs)   bands (ev):

    -2.9073   2.3497   4.7869   6.7418  11.5392  13.6809  16.1211  18.0281

          k =-0.2500-0.1443 0.4364 (   690 PWs)   bands (ev):

    -2.5101   1.4487   4.9711   6.8246  10.9392  13.9994  17.7964  18.2336

          k =-0.2500-0.1443-0.2909 (   680 PWs)   bands (ev):

    -2.9073   2.3497   4.7869   6.7418  11.5392  13.6809  16.1211  18.0281

          k =-0.2500-0.1443-0.1455 (   677 PWs)   bands (ev):

    -3.4736   4.2713   4.5113   6.5843  12.0431  13.1161  13.7450  18.2343

          k =-0.2500 0.1443 0.0000 (   681 PWs)   bands (ev):

    -3.6967   4.3221   5.7684   6.5101  10.2984  13.1165  14.5810  17.0309

          k =-0.2500 0.1443 0.1455 (   677 PWs)   bands (ev):

    -3.4736   4.2713   4.5113   6.5843  12.0431  13.1161  13.7450  18.2343

          k =-0.2500 0.1443 0.2909 (   680 PWs)   bands (ev):

    -2.9073   2.3497   4.7869   6.7418  11.5392  13.6809  16.1211  18.0281

          k =-0.2500 0.1443 0.4364 (   690 PWs)   bands (ev):

    -2.5101   1.4487   4.9711   6.8246  10.9392  13.9994  17.7964  18.2336

          k =-0.2500 0.1443-0.2909 (   680 PWs)   bands (ev):

    -2.9073   2.3497   4.7869   6.7418  11.5392  13.6809  16.1211  18.0281

          k =-0.2500 0.1443-0.1455 (   677 PWs)   bands (ev):

    -3.4736   4.2713   4.5113   6.5843  12.0431  13.1161  13.7450  18.2343

          k =-0.2500-0.7217 0.0000 (   673 PWs)   bands (ev):

    -1.5955   1.9992   3.1104   7.7211  11.4346  12.3899  14.7394  16.0952

          k =-0.2500-0.7217 0.1455 (   684 PWs)   bands (ev):

    -1.3965   2.1623   3.2397   6.3799  10.0624  14.1966  14.9079  16.2485

          k =-0.2500-0.7217 0.2909 (   678 PWs)   bands (ev):

    -0.9037   2.5530   3.5246   4.5533   8.3547  13.1327  16.8169  17.8007

          k =-0.2500-0.7217 0.4364 (   674 PWs)   bands (ev):

    -0.5748   2.7987   3.7030   3.7188   7.6358  12.4494  17.2204  18.2374

          k =-0.2500-0.7217-0.2909 (   678 PWs)   bands (ev):

    -0.9037   2.5530   3.5246   4.5533   8.3547  13.1327  16.8169  17.8007

          k =-0.2500-0.7217-0.1455 (   684 PWs)   bands (ev):

    -1.3965   2.1623   3.2397   6.3799  10.0624  14.1966  14.9079  16.2485

          k =-0.2500-0.4330 0.0000 (   673 PWs)   bands (ev):

    -1.5955   1.9992   3.1104   7.7211  11.4346  12.3899  14.7394  16.0952

          k =-0.2500-0.4330 0.1455 (   684 PWs)   bands (ev):

    -1.3965   2.1623   3.2397   6.3799  10.0624  14.1966  14.9079  16.2485

          k =-0.2500-0.4330 0.2909 (   678 PWs)   bands (ev):

    -0.9037   2.5530   3.5246   4.5533   8.3547  13.1327  16.8169  17.8007

          k =-0.2500-0.4330 0.4364 (   674 PWs)   bands (ev):

    -0.5748   2.7987   3.7030   3.7188   7.6358  12.4494  17.2204  18.2374

          k =-0.2500-0.4330-0.2909 (   678 PWs)   bands (ev):

    -0.9037   2.5530   3.5246   4.5533   8.3547  13.1327  16.8169  17.8007

          k =-0.2500-0.4330-0.1455 (   684 PWs)   bands (ev):

    -1.3965   2.1623   3.2397   6.3799  10.0624  14.1966  14.9079  16.2485

     the Fermi energy is     7.7432 ev

     Writing config to output data dir ./_ph0/pwscf.q_1/pwscf.save/ :
     XML data file
 
     [dfpt_tetra]  Dos(E_F)[/Ry] :   0.1053843E+02

     Electron-phonon matrix                                                     

     bravais-lattice index     =            0
     lattice parameter (alat)  =       5.8042  a.u.
     unit-cell volume          =     194.0373 (a.u.)^3
     number of atoms/cell      =            3
     number of atomic types    =            2
     kinetic-energy cut-off    =      35.0000  Ry
     charge density cut-off    =     280.0000  Ry
     convergence threshold     =      1.0E-12
     beta                      =       0.7000
     number of iterations used =            4
     Exchange-correlation= PBE
                           (   1   4   3   4   0   0   0)


     celldm(1)=    5.80420  celldm(2)=    0.00000  celldm(3)=    0.00000
     celldm(4)=    0.00000  celldm(5)=    0.00000  celldm(6)=    0.00000

     crystal axes: (cart. coord. in units of alat)
               a(1) = (  1.0000  0.0000  0.0000 )  
               a(2) = ( -0.5000  0.8660  0.0000 )  
               a(3) = (  0.0000  0.0000  1.1458 )  

     reciprocal axes: (cart. coord. in units 2 pi/alat)
               b(1) = (  1.0000  0.5774  0.0000 )  
               b(2) = (  0.0000  1.1547  0.0000 )  
               b(3) = (  0.0000  0.0000  0.8727 )  


     Atoms inside the unit cell: 

     Cartesian axes

     site n.  atom      mass           positions (alat units)
        1  Mg     24.3050   tau(    1) = (    0.00000    0.00000    0.00000  )
        2  B      10.8110   tau(    2) = (   -0.00000    0.57735    0.57292  )
        3  B      10.8110   tau(    3) = (    0.50000    0.28868    0.57292  )

     Computing dynamical matrix for 
                    q = (   0.0000000   0.0000000   0.1454529 )
 
     12 Sym.Ops. (no q -> -q+G )


     G cutoff =  238.9372  (  15395 G-vectors)     FFT grid: ( 32, 32, 36)
     G cutoff =  119.4686  (   5449 G-vectors)  smooth grid: ( 24, 24, 25)
     number of k points=    96

     PseudoPot. # 1 for B  read from file:
     ./B.pbe-n-kjpaw_psl.0.1.upf
     MD5 check sum: b4345a612e0782cca08559f453f3313f
     Pseudo is Projector augmented-wave + core cor, Zval =  3.0
     Generated using "atomic" code by A. Dal Corso  v.5.0.99 svn rev. 10869
     Shape of augmentation charge: BESSEL
     Using radial grid of 1059 points,  4 beta functions with: 
                l(1) =   0
                l(2) =   0
                l(3) =   1
                l(4) =   1
     Q(r) pseudized with 0 coefficients 


     PseudoPot. # 2 for Mg read from file:
     ./Mg.pbe-n-kjpaw_psl.0.3.0.upf
     MD5 check sum: 9eaefceb6cf3903db1b93e4e5c6adf9a
     Pseudo is Projector augmented-wave + core cor, Zval =  2.0
     Generated using "atomic" code by A. Dal Corso  v.5.0.99 svn rev. 10869
     Shape of augmentation charge: PSQ
     Using radial grid of 1129 points,  4 beta functions with: 
                l(1) =   0
                l(2) =   0
                l(3) =   1
                l(4) =   1
     Q(r) pseudized with 0 coefficients 



     Atomic displacements:
     There are    6 irreducible representations

     Representation     1      1 modes -  To be done

     Representation     2      1 modes -  To be done

     Representation     3      2 modes -  To be done

     Representation     4      1 modes -  To be done

     Representation     5      2 modes -  To be done

     Representation     6      2 modes -  To be done


     Message from routine init_vloc:
     Interpolation table for Vloc re-allocated
     PHONON       :      2.01s CPU      2.38s WALL

     Reading dVscf from file dv
     Reading dynamics matrix from file matdyn1

     Diagonalizing the dynamical matrix

     q = (    0.000000000   0.000000000   0.145452854 ) 

 **************************************************************************
     freq (    1) =       2.789734 [THz] =      93.055520 [cm-1]
     freq (    2) =       2.789734 [THz] =      93.055520 [cm-1]
     freq (    3) =       5.117168 [THz] =     170.690367 [cm-1]
     freq (    4) =       9.711593 [THz] =     323.943877 [cm-1]
     freq (    5) =       9.711593 [THz] =     323.943877 [cm-1]
     freq (    6) =      12.583603 [THz] =     419.743802 [cm-1]
     freq (    7) =      17.386509 [THz] =     579.951513 [cm-1]
     freq (    8) =      17.386509 [THz] =     579.951513 [cm-1]
     freq (    9) =      20.727703 [THz] =     691.401764 [cm-1]
 **************************************************************************
 [elph_scdft]  write elph.dat with symmetries (only on Fermi surfaces)
 [elph_scdft]   Lowest band which contains FS :            3
 [elph_scdft]  Highest band which contains FS :            5
 [elph_scdft]    # of bands which contains FS :            3

     Calculation of q =    0.0000000   0.0000000  -0.4363586
     Message from routine kpoint_grid:
     ATTENTION: skip check of k-points equivalence
     [opt_tetra]  Optimized tetrahedron method is used.
     Message from routine divide_et_impera:
     suboptimal parallelization: some nodes have no k-points
 
     G-vector sticks info
     --------------------
     sticks:   dense  smooth     PW     G-vecs:    dense   smooth      PW
     Sum         649     313    121                15395     5449    1287
 
     Using Slab Decomposition
 

     Title: 
     Electron-phonon matrix                                                     


     bravais-lattice index     =            0
     lattice parameter (alat)  =       5.8042  a.u.
     unit-cell volume          =     194.0373 (a.u.)^3
     number of atoms/cell      =            3
     number of atomic types    =            2
     number of electrons       =         8.00
     number of Kohn-Sham states=            8
     kinetic-energy cutoff     =      35.0000  Ry
     charge density cutoff     =     280.0000  Ry
     Exchange-correlation= PBE
                           (   1   4   3   4   0   0   0)

     celldm(1)=   5.804205  celldm(2)=   0.000000  celldm(3)=   0.000000
     celldm(4)=   0.000000  celldm(5)=   0.000000  celldm(6)=   0.000000

     crystal axes: (cart. coord. in units of alat)
               a(1) = (   1.000000   0.000000   0.000000 )  
               a(2) = (  -0.500000   0.866025   0.000000 )  
               a(3) = (   0.000000   0.000000   1.145847 )  

     reciprocal axes: (cart. coord. in units 2 pi/alat)
               b(1) = (  1.000000  0.577350  0.000000 )  
               b(2) = (  0.000000  1.154701  0.000000 )  
               b(3) = (  0.000000  0.000000  0.872717 )  


     PseudoPot. # 1 for B  read from file:
     ./B.pbe-n-kjpaw_psl.0.1.upf
     MD5 check sum: b4345a612e0782cca08559f453f3313f
     Pseudo is Projector augmented-wave + core cor, Zval =  3.0
     Generated using "atomic" code by A. Dal Corso  v.5.0.99 svn rev. 10869
     Shape of augmentation charge: BESSEL
     Using radial grid of 1059 points,  4 beta functions with: 
                l(1) =   0
                l(2) =   0
                l(3) =   1
                l(4) =   1
     Q(r) pseudized with 0 coefficients 


     PseudoPot. # 2 for Mg read from file:
     ./Mg.pbe-n-kjpaw_psl.0.3.0.upf
     MD5 check sum: 9eaefceb6cf3903db1b93e4e5c6adf9a
     Pseudo is Projector augmented-wave + core cor, Zval =  2.0
     Generated using "atomic" code by A. Dal Corso  v.5.0.99 svn rev. 10869
     Shape of augmentation charge: PSQ
     Using radial grid of 1129 points,  4 beta functions with: 
                l(1) =   0
                l(2) =   0
                l(3) =   1
                l(4) =   1
     Q(r) pseudized with 0 coefficients 


     atomic species   valence    mass     pseudopotential
     B                 3.00    10.81100     B ( 1.00)
     Mg                2.00    24.30500     Mg( 1.00)

     24 Sym. Ops., with inversion, found



   Cartesian axes

     site n.     atom                  positions (alat units)
         1        Mg     tau(   1) = (   0.0000000   0.0000000   0.0000000  )
         2        B      tau(   2) = (  -0.0000000   0.5773503   0.5729233  )
         3        B      tau(   3) = (   0.5000000   0.2886751   0.5729233  )

     number of k points=    96 (tetrahedron method)
                       cart. coord. in units 2pi/alat
        k(    1) = (   0.0000000   0.0000000   0.0000000), wk =   0.0416667
        k(    2) = (   0.0000000   0.0000000  -0.4363586), wk =   0.0000000
        k(    3) = (   0.0000000   0.0000000   0.2909057), wk =   0.0416667
        k(    4) = (   0.0000000   0.0000000  -0.1454529), wk =   0.0000000
        k(    5) = (   0.0000000   0.0000000  -0.2909057), wk =   0.0416667
        k(    6) = (   0.0000000   0.0000000  -0.7272643), wk =   0.0000000
        k(    7) = (   0.0000000   0.2886751   0.0000000), wk =   0.0416667
        k(    8) = (   0.0000000   0.2886751  -0.4363586), wk =   0.0000000
        k(    9) = (   0.0000000   0.2886751   0.2909057), wk =   0.0416667
        k(   10) = (   0.0000000   0.2886751  -0.1454529), wk =   0.0000000
        k(   11) = (   0.0000000   0.2886751  -0.2909057), wk =   0.0416667
        k(   12) = (   0.0000000   0.2886751  -0.7272643), wk =   0.0000000
        k(   13) = (   0.0000000  -0.5773503   0.0000000), wk =   0.0416667
        k(   14) = (   0.0000000  -0.5773503  -0.4363586), wk =   0.0000000
        k(   15) = (   0.0000000  -0.5773503   0.2909057), wk =   0.0416667
        k(   16) = (   0.0000000  -0.5773503  -0.1454529), wk =   0.0000000
        k(   17) = (   0.0000000  -0.5773503  -0.2909057), wk =   0.0416667
        k(   18) = (   0.0000000  -0.5773503  -0.7272643), wk =   0.0000000
        k(   19) = (   0.0000000  -0.2886751   0.0000000), wk =   0.0416667
        k(   20) = (   0.0000000  -0.2886751  -0.4363586), wk =   0.0000000
        k(   21) = (   0.0000000  -0.2886751   0.2909057), wk =   0.0416667
        k(   22) = (   0.0000000  -0.2886751  -0.1454529), wk =   0.0000000
        k(   23) = (   0.0000000  -0.2886751  -0.2909057), wk =   0.0416667
        k(   24) = (   0.0000000  -0.2886751  -0.7272643), wk =   0.0000000
        k(   25) = (   0.2500000   0.1443376   0.0000000), wk =   0.0416667
        k(   26) = (   0.2500000   0.1443376  -0.4363586), wk =   0.0000000
        k(   27) = (   0.2500000   0.1443376   0.2909057), wk =   0.0416667
        k(   28) = (   0.2500000   0.1443376  -0.1454529), wk =   0.0000000
        k(   29) = (   0.2500000   0.1443376  -0.2909057), wk =   0.0416667
        k(   30) = (   0.2500000   0.1443376  -0.7272643), wk =   0.0000000
        k(   31) = (   0.2500000   0.4330127   0.0000000), wk =   0.0416667
        k(   32) = (   0.2500000   0.4330127  -0.4363586), wk =   0.0000000
        k(   33) = (   0.2500000   0.4330127   0.2909057), wk =   0.0416667
        k(   34) = (   0.2500000   0.4330127  -0.1454529), wk =   0.0000000
        k(   35) = (   0.2500000   0.4330127  -0.2909057), wk =   0.0416667
        k(   36) = (   0.2500000   0.4330127  -0.7272643), wk =   0.0000000
        k(   37) = (   0.2500000  -0.4330127   0.0000000), wk =   0.0416667
        k(   38) = (   0.2500000  -0.4330127  -0.4363586), wk =   0.0000000
        k(   39) = (   0.2500000  -0.4330127   0.2909057), wk =   0.0416667
        k(   40) = (   0.2500000  -0.4330127  -0.1454529), wk =   0.0000000
        k(   41) = (   0.2500000  -0.4330127  -0.2909057), wk =   0.0416667
        k(   42) = (   0.2500000  -0.4330127  -0.7272643), wk =   0.0000000
        k(   43) = (   0.2500000  -0.1443376   0.0000000), wk =   0.0416667
        k(   44) = (   0.2500000  -0.1443376  -0.4363586), wk =   0.0000000
        k(   45) = (   0.2500000  -0.1443376   0.2909057), wk =   0.0416667
        k(   46) = (   0.2500000  -0.1443376  -0.1454529), wk =   0.0000000
        k(   47) = (   0.2500000  -0.1443376  -0.2909057), wk =   0.0416667
        k(   48) = (   0.2500000  -0.1443376  -0.7272643), wk =   0.0000000
        k(   49) = (  -0.5000000  -0.2886751   0.0000000), wk =   0.0416667
        k(   50) = (  -0.5000000  -0.2886751  -0.4363586), wk =   0.0000000
        k(   51) = (  -0.5000000  -0.2886751   0.2909057), wk =   0.0416667
        k(   52) = (  -0.5000000  -0.2886751  -0.1454529), wk =   0.0000000
        k(   53) = (  -0.5000000  -0.2886751  -0.2909057), wk =   0.0416667
        k(   54) = (  -0.5000000  -0.2886751  -0.7272643), wk =   0.0000000
        k(   55) = (  -0.5000000  -0.0000000   0.0000000), wk =   0.0416667
        k(   56) = (  -0.5000000  -0.0000000  -0.4363586), wk =   0.0000000
        k(   57) = (  -0.5000000  -0.0000000   0.2909057), wk =   0.0416667
        k(   58) = (  -0.5000000  -0.0000000  -0.1454529), wk =   0.0000000
        k(   59) = (  -0.5000000  -0.0000000  -0.2909057), wk =   0.0416667
        k(   60) = (  -0.5000000  -0.0000000  -0.7272643), wk =   0.0000000
        k(   61) = (  -0.5000000  -0.8660254   0.0000000), wk =   0.0416667
        k(   62) = (  -0.5000000  -0.8660254  -0.4363586), wk =   0.0000000
        k(   63) = (  -0.5000000  -0.8660254   0.2909057), wk =   0.0416667
        k(   64) = (  -0.5000000  -0.8660254  -0.1454529), wk =   0.0000000
        k(   65) = (  -0.5000000  -0.8660254  -0.2909057), wk =   0.0416667
        k(   66) = (  -0.5000000  -0.8660254  -0.7272643), wk =   0.0000000
        k(   67) = (  -0.5000000  -0.5773503   0.0000000), wk =   0.0416667
        k(   68) = (  -0.5000000  -0.5773503  -0.4363586), wk =   0.0000000
        k(   69) = (  -0.5000000  -0.5773503   0.2909057), wk =   0.0416667
        k(   70) = (  -0.5000000  -0.5773503  -0.1454529), wk =   0.0000000
        k(   71) = (  -0.5000000  -0.5773503  -0.2909057), wk =   0.0416667
        k(   72) = (  -0.5000000  -0.5773503  -0.7272643), wk =   0.0000000
        k(   73) = (  -0.2500000  -0.1443376   0.0000000), wk =   0.0416667
        k(   74) = (  -0.2500000  -0.1443376  -0.4363586), wk =   0.0000000
        k(   75) = (  -0.2500000  -0.1443376   0.2909057), wk =   0.0416667
        k(   76) = (  -0.2500000  -0.1443376  -0.1454529), wk =   0.0000000
        k(   77) = (  -0.2500000  -0.1443376  -0.2909057), wk =   0.0416667
        k(   78) = (  -0.2500000  -0.1443376  -0.7272643), wk =   0.0000000
        k(   79) = (  -0.2500000   0.1443376   0.0000000), wk =   0.0416667
        k(   80) = (  -0.2500000   0.1443376  -0.4363586), wk =   0.0000000
        k(   81) = (  -0.2500000   0.1443376   0.2909057), wk =   0.0416667
        k(   82) = (  -0.2500000   0.1443376  -0.1454529), wk =   0.0000000
        k(   83) = (  -0.2500000   0.1443376  -0.2909057), wk =   0.0416667
        k(   84) = (  -0.2500000   0.1443376  -0.7272643), wk =   0.0000000
        k(   85) = (  -0.2500000  -0.7216878   0.0000000), wk =   0.0416667
        k(   86) = (  -0.2500000  -0.7216878  -0.4363586), wk =   0.0000000
        k(   87) = (  -0.2500000  -0.7216878   0.2909057), wk =   0.0416667
        k(   88) = (  -0.2500000  -0.7216878  -0.1454529), wk =   0.0000000
        k(   89) = (  -0.2500000  -0.7216878  -0.2909057), wk =   0.0416667
        k(   90) = (  -0.2500000  -0.7216878  -0.7272643), wk =   0.0000000
        k(   91) = (  -0.2500000  -0.4330127   0.0000000), wk =   0.0416667
        k(   92) = (  -0.2500000  -0.4330127  -0.4363586), wk =   0.0000000
        k(   93) = (  -0.2500000  -0.4330127   0.2909057), wk =   0.0416667
        k(   94) = (  -0.2500000  -0.4330127  -0.1454529), wk =   0.0000000
        k(   95) = (  -0.2500000  -0.4330127  -0.2909057), wk =   0.0416667
        k(   96) = (  -0.2500000  -0.4330127  -0.7272643), wk =   0.0000000

     Dense  grid:    15395 G-vectors     FFT dimensions: (  32,  32,  36)

     Smooth grid:     5449 G-vectors     FFT dimensions: (  24,  24,  25)

     Estimated max dynamical RAM per process >       7.23 MB

     Estimated total dynamical RAM >     462.52 MB

     Check: negative core charge=   -0.000006

     The potential is recalculated from file :
     ./_ph0/pwscf.q_2/pwscf.save/charge-density

     Starting wfcs are   12 atomic wfcs
     Checking if some PAW data can be deallocated... 

     Band Structure Calculation
     Davidson diagonalization with overlap

     ethr =  1.25E-10,  avg # of iterations = 19.3

     total cpu time spent up to now is        0.7 secs

     End of band structure calculation

          k = 0.0000 0.0000 0.0000 (   709 PWs)   bands (ev):

    -4.7856   4.7169   8.0859   8.0859   9.3182  14.0810  14.0810  15.9413

          k = 0.0000 0.0000-0.4364 (   684 PWs)   bands (ev):

    -3.4999   0.2155   8.4616   8.4616  14.4076  14.4076  15.7557  17.7397

          k = 0.0000 0.0000 0.2909 (   690 PWs)   bands (ev):

    -3.9413   1.1725   8.3605   8.3605  14.3197  14.3197  15.0532  15.8003

          k = 0.0000 0.0000-0.1455 (   697 PWs)   bands (ev):

    -4.5497   3.2122   8.1741   8.1741  11.3828  14.1562  14.1562  15.8936

          k = 0.0000 0.0000-0.2909 (   690 PWs)   bands (ev):

    -3.9413   1.1725   8.3605   8.3605  14.3197  14.3197  15.0532  15.8003

          k = 0.0000 0.0000-0.7273 (   697 PWs)   bands (ev):

    -4.5497   3.2122   8.1741   8.1741  11.3828  14.1562  14.1562  15.8936

          k = 0.0000 0.2887 0.0000 (   681 PWs)   bands (ev):

    -3.6967   4.3221   5.7684   6.5101  10.2984  13.1165  14.5810  17.0309

          k = 0.0000 0.2887-0.4364 (   690 PWs)   bands (ev):

    -2.5101   1.4487   4.9711   6.8246  10.9392  13.9994  17.7964  18.2336

          k = 0.0000 0.2887 0.2909 (   680 PWs)   bands (ev):

    -2.9073   2.3497   4.7869   6.7418  11.5392  13.6809  16.1211  18.0281

          k = 0.0000 0.2887-0.1455 (   677 PWs)   bands (ev):

    -3.4736   4.2713   4.5113   6.5843  12.0431  13.1161  13.7450  18.2343

          k = 0.0000 0.2887-0.2909 (   680 PWs)   bands (ev):

    -2.9073   2.3497   4.7869   6.7418  11.5392  13.6809  16.1211  18.0281

          k = 0.0000 0.2887-0.7273 (   677 PWs)   bands (ev):

    -3.4736   4.2713   4.5113   6.5843  12.0431  13.1161  13.7450  18.2343

          k = 0.0000-0.5774 0.0000 (   676 PWs)   bands (ev):

    -0.8559  -0.1616   5.5309   7.8975  10.7860  11.6276  13.0221  14.8253

          k = 0.0000-0.5774-0.4364 (   676 PWs)   bands (ev):

     0.1220   0.7477   4.1205   5.8185   6.4053  13.4894  16.5345  16.6638

          k = 0.0000-0.5774 0.2909 (   670 PWs)   bands (ev):

    -0.1967   0.4723   4.9116   5.7426   7.1851  13.0425  17.1668  18.1844

          k = 0.0000-0.5774-0.1455 (   662 PWs)   bands (ev):

    -0.6675   0.0267   5.5994   6.6607   9.0584  12.3432  14.8161  16.3850

          k = 0.0000-0.5774-0.2909 (   670 PWs)   bands (ev):

    -0.1967   0.4723   4.9116   5.7426   7.1851  13.0425  17.1668  18.1844

          k = 0.0000-0.5774-0.7273 (   662 PWs)   bands (ev):

    -0.6675   0.0267   5.5994   6.6607   9.0584  12.3432  14.8161  16.3850

          k = 0.0000-0.2887 0.0000 (   681 PWs)   bands (ev):

    -3.6967   4.3221   5.7684   6.5101  10.2984  13.1165  14.5810  17.0309

          k = 0.0000-0.2887-0.4364 (   690 PWs)   bands (ev):

    -2.5101   1.4487   4.9711   6.8246  10.9392  13.9994  17.7964  18.2336

          k = 0.0000-0.2887 0.2909 (   680 PWs)   bands (ev):

    -2.9073   2.3497   4.7869   6.7418  11.5392  13.6809  16.1211  18.0281

          k = 0.0000-0.2887-0.1455 (   677 PWs)   bands (ev):

    -3.4736   4.2713   4.5113   6.5843  12.0431  13.1161  13.7450  18.2343

          k = 0.0000-0.2887-0.2909 (   680 PWs)   bands (ev):

    -2.9073   2.3497   4.7869   6.7418  11.5392  13.6809  16.1211  18.0281

          k = 0.0000-0.2887-0.7273 (   677 PWs)   bands (ev):

    -3.4736   4.2713   4.5113   6.5843  12.0431  13.1161  13.7450  18.2343

          k = 0.2500 0.1443 0.0000 (   681 PWs)   bands (ev):

    -3.6967   4.3221   5.7684   6.5101  10.2984  13.1165  14.5810  17.0309

          k = 0.2500 0.1443-0.4364 (   690 PWs)   bands (ev):

    -2.5101   1.4487   4.9711   6.8246  10.9392  13.9994  17.7964  18.2336

          k = 0.2500 0.1443 0.2909 (   680 PWs)   bands (ev):

    -2.9073   2.3497   4.7869   6.7418  11.5392  13.6809  16.1211  18.0281

          k = 0.2500 0.1443-0.1455 (   677 PWs)   bands (ev):

    -3.4736   4.2713   4.5113   6.5843  12.0431  13.1161  13.7450  18.2343

          k = 0.2500 0.1443-0.2909 (   680 PWs)   bands (ev):

    -2.9073   2.3497   4.7869   6.7418  11.5392  13.6809  16.1211  18.0281

          k = 0.2500 0.1443-0.7273 (   677 PWs)   bands (ev):

    -3.4736   4.2713   4.5113   6.5843  12.0431  13.1161  13.7450  18.2343

          k = 0.2500 0.4330 0.0000 (   673 PWs)   bands (ev):

    -1.5955   1.9992   3.1104   7.7211  11.4346  12.3899  14.7394  16.0952

          k = 0.2500 0.4330-0.4364 (   674 PWs)   bands (ev):

    -0.5748   2.7987   3.7030   3.7188   7.6358  12.4494  17.2204  18.2374

          k = 0.2500 0.4330 0.2909 (   678 PWs)   bands (ev):

    -0.9037   2.5530   3.5246   4.5533   8.3547  13.1327  16.8169  17.8007

          k = 0.2500 0.4330-0.1455 (   684 PWs)   bands (ev):

    -1.3965   2.1623   3.2397   6.3799  10.0624  14.1966  14.9079  16.2485

          k = 0.2500 0.4330-0.2909 (   678 PWs)   bands (ev):

    -0.9037   2.5530   3.5246   4.5533   8.3547  13.1327  16.8169  17.8007

          k = 0.2500 0.4330-0.7273 (   684 PWs)   bands (ev):

    -1.3965   2.1623   3.2397   6.3799  10.0624  14.1966  14.9079  16.2485

          k = 0.2500-0.4330 0.0000 (   673 PWs)   bands (ev):

    -1.5955   1.9992   3.1104   7.7211  11.4346  12.3899  14.7394  16.0952

          k = 0.2500-0.4330-0.4364 (   674 PWs)   bands (ev):

    -0.5748   2.7987   3.7030   3.7188   7.6358  12.4494  17.2204  18.2374

          k = 0.2500-0.4330 0.2909 (   678 PWs)   bands (ev):

    -0.9037   2.5530   3.5246   4.5533   8.3547  13.1327  16.8169  17.8007

          k = 0.2500-0.4330-0.1455 (   684 PWs)   bands (ev):

    -1.3965   2.1623   3.2397   6.3799  10.0624  14.1966  14.9079  16.2485

          k = 0.2500-0.4330-0.2909 (   678 PWs)   bands (ev):

    -0.9037   2.5530   3.5246   4.5533   8.3547  13.1327  16.8169  17.8007

          k = 0.2500-0.4330-0.7273 (   684 PWs)   bands (ev):

    -1.3965   2.1623   3.2397   6.3799  10.0624  14.1966  14.9079  16.2485

          k = 0.2500-0.1443 0.0000 (   681 PWs)   bands (ev):

    -3.6967   4.3221   5.7684   6.5101  10.2984  13.1165  14.5810  17.0309

          k = 0.2500-0.1443-0.4364 (   690 PWs)   bands (ev):

    -2.5101   1.4487   4.9711   6.8246  10.9392  13.9994  17.7964  18.2336

          k = 0.2500-0.1443 0.2909 (   680 PWs)   bands (ev):

    -2.9073   2.3497   4.7869   6.7418  11.5392  13.6809  16.1211  18.0281

          k = 0.2500-0.1443-0.1455 (   677 PWs)   bands (ev):

    -3.4736   4.2713   4.5113   6.5843  12.0431  13.1161  13.7450  18.2343

          k = 0.2500-0.1443-0.2909 (   680 PWs)   bands (ev):

    -2.9073   2.3497   4.7869   6.7418  11.5392  13.6809  16.1211  18.0281

          k = 0.2500-0.1443-0.7273 (   677 PWs)   bands (ev):

    -3.4736   4.2713   4.5113   6.5843  12.0431  13.1161  13.7450  18.2343

          k =-0.5000-0.2887 0.0000 (   676 PWs)   bands (ev):

    -0.8559  -0.1616   5.5309   7.8975  10.7860  11.6276  13.0221  14.8253

          k =-0.5000-0.2887-0.4364 (   676 PWs)   bands (ev):

     0.1220   0.7477   4.1205   5.8185   6.4053  13.4894  16.5345  16.6638

          k =-0.5000-0.2887 0.2909 (   670 PWs)   bands (ev):

    -0.1967   0.4723   4.9116   5.7426   7.1851  13.0425  17.1668  18.1844

          k =-0.5000-0.2887-0.1455 (   662 PWs)   bands (ev):

    -0.6675   0.0267   5.5994   6.6607   9.0584  12.3432  14.8161  16.3850

          k =-0.5000-0.2887-0.2909 (   670 PWs)   bands (ev):

    -0.1967   0.4723   4.9116   5.7426   7.1851  13.0425  17.1668  18.1844

          k =-0.5000-0.2887-0.7273 (   662 PWs)   bands (ev):

    -0.6675   0.0267   5.5994   6.6607   9.0584  12.3432  14.8161  16.3850

          k =-0.5000-0.0000 0.0000 (   673 PWs)   bands (ev):

    -1.5955   1.9992   3.1104   7.7211  11.4346  12.3899  14.7394  16.0952

          k =-0.5000-0.0000-0.4364 (   674 PWs)   bands (ev):

    -0.5748   2.7987   3.7030   3.7188   7.6358  12.4494  17.2204  18.2374

          k =-0.5000-0.0000 0.2909 (   678 PWs)   bands (ev):

    -0.9037   2.5530   3.5246   4.5533   8.3547  13.1327  16.8169  17.8007

          k =-0.5000-0.0000-0.1455 (   684 PWs)   bands (ev):

    -1.3965   2.1623   3.2397   6.3799  10.0624  14.1966  14.9079  16.2485

          k =-0.5000-0.0000-0.2909 (   678 PWs)   bands (ev):

    -0.9037   2.5530   3.5246   4.5533   8.3547  13.1327  16.8169  17.8007

          k =-0.5000-0.0000-0.7273 (   684 PWs)   bands (ev):

    -1.3965   2.1623   3.2397   6.3799  10.0624  14.1966  14.9079  16.2485

          k =-0.5000-0.8660 0.0000 (   676 PWs)   bands (ev):

    -0.8559  -0.1616   5.5309   7.8975  10.7860  11.6276  13.0221  14.8253

          k =-0.5000-0.8660-0.4364 (   676 PWs)   bands (ev):

     0.1220   0.7477   4.1205   5.8185   6.4053  13.4894  16.5345  16.6638

          k =-0.5000-0.8660 0.2909 (   670 PWs)   bands (ev):

    -0.1967   0.4723   4.9116   5.7426   7.1851  13.0425  17.1668  18.1844

          k =-0.5000-0.8660-0.1455 (   662 PWs)   bands (ev):

    -0.6675   0.0267   5.5994   6.6607   9.0584  12.3432  14.8161  16.3850

          k =-0.5000-0.8660-0.2909 (   670 PWs)   bands (ev):

    -0.1967   0.4723   4.9116   5.7426   7.1851  13.0425  17.1668  18.1844

          k =-0.5000-0.8660-0.7273 (   662 PWs)   bands (ev):

    -0.6675   0.0267   5.5994   6.6607   9.0584  12.3432  14.8161  16.3850

          k =-0.5000-0.5774 0.0000 (   673 PWs)   bands (ev):

    -1.5955   1.9992   3.1104   7.7211  11.4346  12.3899  14.7394  16.0952

          k =-0.5000-0.5774-0.4364 (   674 PWs)   bands (ev):

    -0.5748   2.7987   3.7030   3.7188   7.6358  12.4494  17.2204  18.2374

          k =-0.5000-0.5774 0.2909 (   678 PWs)   bands (ev):

    -0.9037   2.5530   3.5246   4.5533   8.3547  13.1327  16.8169  17.8007

          k =-0.5000-0.5774-0.1455 (   684 PWs)   bands (ev):

    -1.3965   2.1623   3.2397   6.3799  10.0624  14.1966  14.9079  16.2485

          k =-0.5000-0.5774-0.2909 (   678 PWs)   bands (ev):

    -0.9037   2.5530   3.5246   4.5533   8.3547  13.1327  16.8169  17.8007

          k =-0.5000-0.5774-0.7273 (   684 PWs)   bands (ev):

    -1.3965   2.1623   3.2397   6.3799  10.0624  14.1966  14.9079  16.2485

          k =-0.2500-0.1443 0.0000 (   681 PWs)   bands (ev):

    -3.6967   4.3221   5.7684   6.5101  10.2984  13.1165  14.5810  17.0309

          k =-0.2500-0.1443-0.4364 (   690 PWs)   bands (ev):

    -2.5101   1.4487   4.9711   6.8246  10.9392  13.9994  17.7964  18.2336

          k =-0.2500-0.1443 0.2909 (   680 PWs)   bands (ev):

    -2.9073   2.3497   4.7869   6.7418  11.5392  13.6809  16.1211  18.0281

          k =-0.2500-0.1443-0.1455 (   677 PWs)   bands (ev):

    -3.4736   4.2713   4.5113   6.5843  12.0431  13.1161  13.7450  18.2343

          k =-0.2500-0.1443-0.2909 (   680 PWs)   bands (ev):

    -2.9073   2.3497   4.7869   6.7418  11.5392  13.6809  16.1211  18.0281

          k =-0.2500-0.1443-0.7273 (   677 PWs)   bands (ev):

    -3.4736   4.2713   4.5113   6.5843  12.0431  13.1161  13.7450  18.2343

          k =-0.2500 0.1443 0.0000 (   681 PWs)   bands (ev):

    -3.6967   4.3221   5.7684   6.5101  10.2984  13.1165  14.5810  17.0309

          k =-0.2500 0.1443-0.4364 (   690 PWs)   bands (ev):

    -2.5101   1.4487   4.9711   6.8246  10.9392  13.9994  17.7964  18.2336

          k =-0.2500 0.1443 0.2909 (   680 PWs)   bands (ev):

    -2.9073   2.3497   4.7869   6.7418  11.5392  13.6809  16.1211  18.0281

          k =-0.2500 0.1443-0.1455 (   677 PWs)   bands (ev):

    -3.4736   4.2713   4.5113   6.5843  12.0431  13.1161  13.7450  18.2343

          k =-0.2500 0.1443-0.2909 (   680 PWs)   bands (ev):

    -2.9073   2.3497   4.7869   6.7418  11.5392  13.6809  16.1211  18.0281

          k =-0.2500 0.1443-0.7273 (   677 PWs)   bands (ev):

    -3.4736   4.2713   4.5113   6.5843  12.0431  13.1161  13.7450  18.2343

          k =-0.2500-0.7217 0.0000 (   673 PWs)   bands (ev):

    -1.5955   1.9992   3.1104   7.7211  11.4346  12.3899  14.7394  16.0952

          k =-0.2500-0.7217-0.4364 (   674 PWs)   bands (ev):

    -0.5748   2.7987   3.7030   3.7188   7.6358  12.4494  17.2204  18.2374

          k =-0.2500-0.7217 0.2909 (   678 PWs)   bands (ev):

    -0.9037   2.5530   3.5246   4.5533   8.3547  13.1327  16.8169  17.8007

          k =-0.2500-0.7217-0.1455 (   684 PWs)   bands (ev):

    -1.3965   2.1623   3.2397   6.3799  10.0624  14.1966  14.9079  16.2485

          k =-0.2500-0.7217-0.2909 (   678 PWs)   bands (ev):

    -0.9037   2.5530   3.5246   4.5533   8.3547  13.1327  16.8169  17.8007

          k =-0.2500-0.7217-0.7273 (   684 PWs)   bands (ev):

    -1.3965   2.1623   3.2397   6.3799  10.0624  14.1966  14.9079  16.2485

          k =-0.2500-0.4330 0.0000 (   673 PWs)   bands (ev):

    -1.5955   1.9992   3.1104   7.7211  11.4346  12.3899  14.7394  16.0952

          k =-0.2500-0.4330-0.4364 (   674 PWs)   bands (ev):

    -0.5748   2.7987   3.7030   3.7188   7.6358  12.4494  17.2204  18.2374

          k =-0.2500-0.4330 0.2909 (   678 PWs)   bands (ev):

    -0.9037   2.5530   3.5246   4.5533   8.3547  13.1327  16.8169  17.8007

          k =-0.2500-0.4330-0.1455 (   684 PWs)   bands (ev):

    -1.3965   2.1623   3.2397   6.3799  10.0624  14.1966  14.9079  16.2485

          k =-0.2500-0.4330-0.2909 (   678 PWs)   bands (ev):

    -0.9037   2.5530   3.5246   4.5533   8.3547  13.1327  16.8169  17.8007

          k =-0.2500-0.4330-0.7273 (   684 PWs)   bands (ev):

    -1.3965   2.1623   3.2397   6.3799  10.0624  14.1966  14.9079  16.2485

     the Fermi energy is     7.7432 ev

     Writing config to output data dir ./_ph0/pwscf.q_2/pwscf.save/ :
     XML data file
 
     [dfpt_tetra]  Dos(E_F)[/Ry] :   0.1053843E+02

     Electron-phonon matrix                                                     

     bravais-lattice index     =            0
     lattice parameter (alat)  =       5.8042  a.u.
     unit-cell volume          =     194.0373 (a.u.)^3
     number of atoms/cell      =            3
     number of atomic types    =            2
     kinetic-energy cut-off    =      35.0000  Ry
     charge density cut-off    =     280.0000  Ry
     convergence threshold     =      1.0E-12
     beta                      =       0.7000
     number of iterations used =            4
     Exchange-correlation= PBE
                           (   1   4   3   4   0   0   0)


     celldm(1)=    5.80420  celldm(2)=    0.00000  celldm(3)=    0.00000
     celldm(4)=    0.00000  celldm(5)=    0.00000  celldm(6)=    0.00000

     crystal axes: (cart. coord. in units of alat)
               a(1) = (  1.0000  0.0000  0.0000 )  
               a(2) = ( -0.5000  0.8660  0.0000 )  
               a(3) = (  0.0000  0.0000  1.1458 )  

     reciprocal axes: (cart. coord. in units 2 pi/alat)
               b(1) = (  1.0000  0.5774  0.0000 )  
               b(2) = (  0.0000  1.1547  0.0000 )  
               b(3) = (  0.0000  0.0000  0.8727 )  


     Atoms inside the unit cell: 

     Cartesian axes

     site n.  atom      mass           positions (alat units)
        1  Mg     24.3050   tau(    1) = (    0.00000    0.00000    0.00000  )
        2  B      10.8110   tau(    2) = (   -0.00000    0.57735    0.57292  )
        3  B      10.8110   tau(    3) = (    0.50000    0.28868    0.57292  )

     Computing dynamical matrix for 
                    q = (   0.0000000   0.0000000  -0.4363586 )
 
     25 Sym.Ops. (with q -> -q+G )


     G cutoff =  238.9372  (  15395 G-vectors)     FFT grid: ( 32, 32, 36)
     G cutoff =  119.4686  (   5449 G-vectors)  smooth grid: ( 24, 24, 25)
     number of k points=    96

     PseudoPot. # 1 for B  read from file:
     ./B.pbe-n-kjpaw_psl.0.1.upf
     MD5 check sum: b4345a612e0782cca08559f453f3313f
     Pseudo is Projector augmented-wave + core cor, Zval =  3.0
     Generated using "atomic" code by A. Dal Corso  v.5.0.99 svn rev. 10869
     Shape of augmentation charge: BESSEL
     Using radial grid of 1059 points,  4 beta functions with: 
                l(1) =   0
                l(2) =   0
                l(3) =   1
                l(4) =   1
     Q(r) pseudized with 0 coefficients 


     PseudoPot. # 2 for Mg read from file:
     ./Mg.pbe-n-kjpaw_psl.0.3.0.upf
     MD5 check sum: 9eaefceb6cf3903db1b93e4e5c6adf9a
     Pseudo is Projector augmented-wave + core cor, Zval =  2.0
     Generated using "atomic" code by A. Dal Corso  v.5.0.99 svn rev. 10869
     Shape of augmentation charge: PSQ
     Using radial grid of 1129 points,  4 beta functions with: 
                l(1) =   0
                l(2) =   0
                l(3) =   1
                l(4) =   1
     Q(r) pseudized with 0 coefficients 



     Atomic displacements:
     There are    6 irreducible representations

     Representation     1      1 modes -  To be done

     Representation     2      1 modes -  To be done

     Representation     3      2 modes -  To be done

     Representation     4      1 modes -  To be done

     Representation     5      2 modes -  To be done

     Representation     6      2 modes -  To be done


     PHONON       :      4.72s CPU      5.43s WALL

     Reading dVscf from file dv
     Reading dynamics matrix from file matdyn2

     Diagonalizing the dynamical matrix

     q = (    0.000000000   0.000000000  -0.436358562 ) 

 **************************************************************************
     freq (    1) =       6.771100 [THz] =     225.859570 [cm-1]
     freq (    2) =       6.771100 [THz] =     225.859570 [cm-1]
     freq (    3) =       7.133843 [THz] =     237.959402 [cm-1]
     freq (    4) =       7.133843 [THz] =     237.959402 [cm-1]
     freq (    5) =       9.591613 [THz] =     319.941784 [cm-1]
     freq (    6) =      12.099974 [THz] =     403.611701 [cm-1]
     freq (    7) =      16.563583 [THz] =     552.501647 [cm-1]
     freq (    8) =      16.563583 [THz] =     552.501647 [cm-1]
     freq (    9) =      19.479162 [THz] =     649.754905 [cm-1]
 **************************************************************************
 [elph_scdft]  write elph.dat with symmetries (only on Fermi surfaces)
 [elph_scdft]   Lowest band which contains FS :            3
 [elph_scdft]  Highest band which contains FS :            5
 [elph_scdft]    # of bands which contains FS :            3

     Calculation of q =    0.0000000   0.2886751   0.1454529
     Message from routine kpoint_grid:
     ATTENTION: skip check of k-points equivalence
     [opt_tetra]  Optimized tetrahedron method is used.
     Message from routine divide_et_impera:
     suboptimal parallelization: some nodes have no k-points
 
     G-vector sticks info
     --------------------
     sticks:   dense  smooth     PW     G-vecs:    dense   smooth      PW
     Sum         649     313    121                15395     5449    1155
 
     Using Slab Decomposition
 

     Title: 
     Electron-phonon matrix                                                     


     bravais-lattice index     =            0
     lattice parameter (alat)  =       5.8042  a.u.
     unit-cell volume          =     194.0373 (a.u.)^3
     number of atoms/cell      =            3
     number of atomic types    =            2
     number of electrons       =         8.00
     number of Kohn-Sham states=            8
     kinetic-energy cutoff     =      35.0000  Ry
     charge density cutoff     =     280.0000  Ry
     Exchange-correlation= PBE
                           (   1   4   3   4   0   0   0)

     celldm(1)=   5.804205  celldm(2)=   0.000000  celldm(3)=   0.000000
     celldm(4)=   0.000000  celldm(5)=   0.000000  celldm(6)=   0.000000

     crystal axes: (cart. coord. in units of alat)
               a(1) = (   1.000000   0.000000   0.000000 )  
               a(2) = (  -0.500000   0.866025   0.000000 )  
               a(3) = (   0.000000   0.000000   1.145847 )  

     reciprocal axes: (cart. coord. in units 2 pi/alat)
               b(1) = (  1.000000  0.577350  0.000000 )  
               b(2) = (  0.000000  1.154701  0.000000 )  
               b(3) = (  0.000000  0.000000  0.872717 )  


     PseudoPot. # 1 for B  read from file:
     ./B.pbe-n-kjpaw_psl.0.1.upf
     MD5 check sum: b4345a612e0782cca08559f453f3313f
     Pseudo is Projector augmented-wave + core cor, Zval =  3.0
     Generated using "atomic" code by A. Dal Corso  v.5.0.99 svn rev. 10869
     Shape of augmentation charge: BESSEL
     Using radial grid of 1059 points,  4 beta functions with: 
                l(1) =   0
                l(2) =   0
                l(3) =   1
                l(4) =   1
     Q(r) pseudized with 0 coefficients 


     PseudoPot. # 2 for Mg read from file:
     ./Mg.pbe-n-kjpaw_psl.0.3.0.upf
     MD5 check sum: 9eaefceb6cf3903db1b93e4e5c6adf9a
     Pseudo is Projector augmented-wave + core cor, Zval =  2.0
     Generated using "atomic" code by A. Dal Corso  v.5.0.99 svn rev. 10869
     Shape of augmentation charge: PSQ
     Using radial grid of 1129 points,  4 beta functions with: 
                l(1) =   0
                l(2) =   0
                l(3) =   1
                l(4) =   1
     Q(r) pseudized with 0 coefficients 


     atomic species   valence    mass     pseudopotential
     B                 3.00    10.81100     B ( 1.00)
     Mg                2.00    24.30500     Mg( 1.00)

     24 Sym. Ops., with inversion, found



   Cartesian axes

     site n.     atom                  positions (alat units)
         1        Mg     tau(   1) = (   0.0000000   0.0000000   0.0000000  )
         2        B      tau(   2) = (  -0.0000000   0.5773503   0.5729233  )
         3        B      tau(   3) = (   0.5000000   0.2886751   0.5729233  )

     number of k points=    96 (tetrahedron method)
                       cart. coord. in units 2pi/alat
        k(    1) = (   0.0000000   0.0000000   0.0000000), wk =   0.0416667
        k(    2) = (   0.0000000   0.2886751   0.1454529), wk =   0.0000000
        k(    3) = (   0.0000000   0.0000000   0.2909057), wk =   0.0416667
        k(    4) = (   0.0000000   0.2886751   0.4363586), wk =   0.0000000
        k(    5) = (   0.0000000   0.0000000  -0.2909057), wk =   0.0416667
        k(    6) = (   0.0000000   0.2886751  -0.1454529), wk =   0.0000000
        k(    7) = (   0.0000000   0.2886751   0.0000000), wk =   0.0416667
        k(    8) = (   0.0000000   0.5773503   0.1454529), wk =   0.0000000
        k(    9) = (   0.0000000   0.2886751   0.2909057), wk =   0.0416667
        k(   10) = (   0.0000000   0.5773503   0.4363586), wk =   0.0000000
        k(   11) = (   0.0000000   0.2886751  -0.2909057), wk =   0.0416667
        k(   12) = (   0.0000000   0.5773503  -0.1454529), wk =   0.0000000
        k(   13) = (   0.0000000  -0.5773503   0.0000000), wk =   0.0416667
        k(   14) = (   0.0000000  -0.2886751   0.1454529), wk =   0.0000000
        k(   15) = (   0.0000000  -0.5773503   0.2909057), wk =   0.0416667
        k(   16) = (   0.0000000  -0.2886751   0.4363586), wk =   0.0000000
        k(   17) = (   0.0000000  -0.5773503  -0.2909057), wk =   0.0416667
        k(   18) = (   0.0000000  -0.2886751  -0.1454529), wk =   0.0000000
        k(   19) = (   0.0000000  -0.2886751   0.0000000), wk =   0.0416667
        k(   20) = (   0.0000000   0.0000000   0.1454529), wk =   0.0000000
        k(   21) = (   0.0000000  -0.2886751   0.2909057), wk =   0.0416667
        k(   22) = (   0.0000000   0.0000000   0.4363586), wk =   0.0000000
        k(   23) = (   0.0000000  -0.2886751  -0.2909057), wk =   0.0416667
        k(   24) = (   0.0000000   0.0000000  -0.1454529), wk =   0.0000000
        k(   25) = (   0.2500000   0.1443376   0.0000000), wk =   0.0416667
        k(   26) = (   0.2500000   0.4330127   0.1454529), wk =   0.0000000
        k(   27) = (   0.2500000   0.1443376   0.2909057), wk =   0.0416667
        k(   28) = (   0.2500000   0.4330127   0.4363586), wk =   0.0000000
        k(   29) = (   0.2500000   0.1443376  -0.2909057), wk =   0.0416667
        k(   30) = (   0.2500000   0.4330127  -0.1454529), wk =   0.0000000
        k(   31) = (   0.2500000   0.4330127   0.0000000), wk =   0.0416667
        k(   32) = (   0.2500000   0.7216878   0.1454529), wk =   0.0000000
        k(   33) = (   0.2500000   0.4330127   0.2909057), wk =   0.0416667
        k(   34) = (   0.2500000   0.7216878   0.4363586), wk =   0.0000000
        k(   35) = (   0.2500000   0.4330127  -0.2909057), wk =   0.0416667
        k(   36) = (   0.2500000   0.7216878  -0.1454529), wk =   0.0000000
        k(   37) = (   0.2500000  -0.4330127   0.0000000), wk =   0.0416667
        k(   38) = (   0.2500000  -0.1443376   0.1454529), wk =   0.0000000
        k(   39) = (   0.2500000  -0.4330127   0.2909057), wk =   0.0416667
        k(   40) = (   0.2500000  -0.1443376   0.4363586), wk =   0.0000000
        k(   41) = (   0.2500000  -0.4330127  -0.2909057), wk =   0.0416667
        k(   42) = (   0.2500000  -0.1443376  -0.1454529), wk =   0.0000000
        k(   43) = (   0.2500000  -0.1443376   0.0000000), wk =   0.0416667
        k(   44) = (   0.2500000   0.1443376   0.1454529), wk =   0.0000000
        k(   45) = (   0.2500000  -0.1443376   0.2909057), wk =   0.0416667
        k(   46) = (   0.2500000   0.1443376   0.4363586), wk =   0.0000000
        k(   47) = (   0.2500000  -0.1443376  -0.2909057), wk =   0.0416667
        k(   48) = (   0.2500000   0.1443376  -0.1454529), wk =   0.0000000
        k(   49) = (  -0.5000000  -0.2886751   0.0000000), wk =   0.0416667
        k(   50) = (  -0.5000000  -0.0000000   0.1454529), wk =   0.0000000
        k(   51) = (  -0.5000000  -0.2886751   0.2909057), wk =   0.0416667
        k(   52) = (  -0.5000000  -0.0000000   0.4363586), wk =   0.0000000
        k(   53) = (  -0.5000000  -0.2886751  -0.2909057), wk =   0.0416667
        k(   54) = (  -0.5000000  -0.0000000  -0.1454529), wk =   0.0000000
        k(   55) = (  -0.5000000  -0.0000000   0.0000000), wk =   0.0416667
        k(   56) = (  -0.5000000   0.2886751   0.1454529), wk =   0.0000000
        k(   57) = (  -0.5000000  -0.0000000   0.2909057), wk =   0.0416667
        k(   58) = (  -0.5000000   0.2886751   0.4363586), wk =   0.0000000
        k(   59) = (  -0.5000000  -0.0000000  -0.2909057), wk =   0.0416667
        k(   60) = (  -0.5000000   0.2886751  -0.1454529), wk =   0.0000000
        k(   61) = (  -0.5000000  -0.8660254   0.0000000), wk =   0.0416667
        k(   62) = (  -0.5000000  -0.5773503   0.1454529), wk =   0.0000000
        k(   63) = (  -0.5000000  -0.8660254   0.2909057), wk =   0.0416667
        k(   64) = (  -0.5000000  -0.5773503   0.4363586), wk =   0.0000000
        k(   65) = (  -0.5000000  -0.8660254  -0.2909057), wk =   0.0416667
        k(   66) = (  -0.5000000  -0.5773503  -0.1454529), wk =   0.0000000
        k(   67) = (  -0.5000000  -0.5773503   0.0000000), wk =   0.0416667
        k(   68) = (  -0.5000000  -0.2886751   0.1454529), wk =   0.0000000
        k(   69) = (  -0.5000000  -0.5773503   0.2909057), wk =   0.0416667
        k(   70) = (  -0.5000000  -0.2886751   0.4363586), wk =   0.0000000
        k(   71) = (  -0.5000000  -0.5773503  -0.2909057), wk =   0.0416667
        k(   72) = (  -0.5000000  -0.2886751  -0.1454529), wk =   0.0000000
        k(   73) = (  -0.2500000  -0.1443376   0.0000000), wk =   0.0416667
        k(   74) = (  -0.2500000   0.1443376   0.1454529), wk =   0.0000000
        k(   75) = (  -0.2500000  -0.1443376   0.2909057), wk =   0.0416667
        k(   76) = (  -0.2500000   0.1443376   0.4363586), wk =   0.0000000
        k(   77) = (  -0.2500000  -0.1443376  -0.2909057), wk =   0.0416667
        k(   78) = (  -0.2500000   0.1443376  -0.1454529), wk =   0.0000000
        k(   79) = (  -0.2500000   0.1443376   0.0000000), wk =   0.0416667
        k(   80) = (  -0.2500000   0.4330127   0.1454529), wk =   0.0000000
        k(   81) = (  -0.2500000   0.1443376   0.2909057), wk =   0.0416667
        k(   82) = (  -0.2500000   0.4330127   0.4363586), wk =   0.0000000
        k(   83) = (  -0.2500000   0.1443376  -0.2909057), wk =   0.0416667
        k(   84) = (  -0.2500000   0.4330127  -0.1454529), wk =   0.0000000
        k(   85) = (  -0.2500000  -0.7216878   0.0000000), wk =   0.0416667
        k(   86) = (  -0.2500000  -0.4330127   0.1454529), wk =   0.0000000
        k(   87) = (  -0.2500000  -0.7216878   0.2909057), wk =   0.0416667
        k(   88) = (  -0.2500000  -0.4330127   0.4363586), wk =   0.0000000
        k(   89) = (  -0.2500000  -0.7216878  -0.2909057), wk =   0.0416667
        k(   90) = (  -0.2500000  -0.4330127  -0.1454529), wk =   0.0000000
        k(   91) = (  -0.2500000  -0.4330127   0.0000000), wk =   0.0416667
        k(   92) = (  -0.2500000  -0.1443376   0.1454529), wk =   0.0000000
        k(   93) = (  -0.2500000  -0.4330127   0.2909057), wk =   0.0416667
        k(   94) = (  -0.2500000  -0.1443376   0.4363586), wk =   0.0000000
        k(   95) = (  -0.2500000  -0.4330127  -0.2909057), wk =   0.0416667
        k(   96) = (  -0.2500000  -0.1443376  -0.1454529), wk =   0.0000000

     Dense  grid:    15395 G-vectors     FFT dimensions: (  32,  32,  36)

     Smooth grid:     5449 G-vectors     FFT dimensions: (  24,  24,  25)

     Estimated max dynamical RAM per process >       7.22 MB

     Estimated total dynamical RAM >     462.17 MB

     Check: negative core charge=   -0.000006

     The potential is recalculated from file :
     ./_ph0/pwscf.q_3/pwscf.save/charge-density

     Starting wfcs are   12 atomic wfcs
     Checking if some PAW data can be deallocated... 

     Band Structure Calculation
     Davidson diagonalization with overlap

     ethr =  1.25E-10,  avg # of iterations = 19.3

     total cpu time spent up to now is        1.0 secs

     End of band structure calculation

          k = 0.0000 0.0000 0.0000 (   709 PWs)   bands (ev):

    -4.7856   4.7169   8.0859   8.0859   9.3182  14.0810  14.0810  15.9413

          k = 0.0000 0.2887 0.1455 (   677 PWs)   bands (ev):

    -3.4736   4.2713   4.5113   6.5843  12.0431  13.1161  13.7450  18.2343

          k = 0.0000 0.0000 0.2909 (   690 PWs)   bands (ev):

    -3.9413   1.1725   8.3605   8.3605  14.3197  14.3197  15.0532  15.8003

          k = 0.0000 0.2887 0.4364 (   690 PWs)   bands (ev):

    -2.5101   1.4487   4.9711   6.8246  10.9392  13.9994  17.7964  18.2336

          k = 0.0000 0.0000-0.2909 (   690 PWs)   bands (ev):

    -3.9413   1.1725   8.3605   8.3605  14.3197  14.3197  15.0532  15.8003

          k = 0.0000 0.2887-0.1455 (   677 PWs)   bands (ev):

    -3.4736   4.2713   4.5113   6.5843  12.0431  13.1161  13.7450  18.2343

          k = 0.0000 0.2887 0.0000 (   681 PWs)   bands (ev):

    -3.6967   4.3221   5.7684   6.5101  10.2984  13.1165  14.5810  17.0309

          k = 0.0000 0.5774 0.1455 (   662 PWs)   bands (ev):

    -0.6675   0.0267   5.5994   6.6607   9.0584  12.3432  14.8161  16.3850

          k = 0.0000 0.2887 0.2909 (   680 PWs)   bands (ev):

    -2.9073   2.3497   4.7869   6.7418  11.5392  13.6809  16.1211  18.0281

          k = 0.0000 0.5774 0.4364 (   676 PWs)   bands (ev):

     0.1220   0.7477   4.1205   5.8185   6.4053  13.4894  16.5345  16.6638

          k = 0.0000 0.2887-0.2909 (   680 PWs)   bands (ev):

    -2.9073   2.3497   4.7869   6.7418  11.5392  13.6809  16.1211  18.0281

          k = 0.0000 0.5774-0.1455 (   662 PWs)   bands (ev):

    -0.6675   0.0267   5.5994   6.6607   9.0584  12.3432  14.8161  16.3850

          k = 0.0000-0.5774 0.0000 (   676 PWs)   bands (ev):

    -0.8559  -0.1616   5.5309   7.8975  10.7860  11.6276  13.0221  14.8253

          k = 0.0000-0.2887 0.1455 (   677 PWs)   bands (ev):

    -3.4736   4.2713   4.5113   6.5843  12.0431  13.1161  13.7450  18.2343

          k = 0.0000-0.5774 0.2909 (   670 PWs)   bands (ev):

    -0.1967   0.4723   4.9116   5.7426   7.1851  13.0425  17.1668  18.1844

          k = 0.0000-0.2887 0.4364 (   690 PWs)   bands (ev):

    -2.5101   1.4487   4.9711   6.8246  10.9392  13.9994  17.7964  18.2336

          k = 0.0000-0.5774-0.2909 (   670 PWs)   bands (ev):

    -0.1967   0.4723   4.9116   5.7426   7.1851  13.0425  17.1668  18.1844

          k = 0.0000-0.2887-0.1455 (   677 PWs)   bands (ev):

    -3.4736   4.2713   4.5113   6.5843  12.0431  13.1161  13.7450  18.2343

          k = 0.0000-0.2887 0.0000 (   681 PWs)   bands (ev):

    -3.6967   4.3221   5.7684   6.5101  10.2984  13.1165  14.5810  17.0309

          k = 0.0000 0.0000 0.1455 (   697 PWs)   bands (ev):

    -4.5497   3.2122   8.1741   8.1741  11.3828  14.1562  14.1562  15.8936

          k = 0.0000-0.2887 0.2909 (   680 PWs)   bands (ev):

    -2.9073   2.3497   4.7869   6.7418  11.5392  13.6809  16.1211  18.0281

          k = 0.0000 0.0000 0.4364 (   684 PWs)   bands (ev):

    -3.4999   0.2155   8.4616   8.4616  14.4076  14.4076  15.7557  17.7397

          k = 0.0000-0.2887-0.2909 (   680 PWs)   bands (ev):

    -2.9073   2.3497   4.7869   6.7418  11.5392  13.6809  16.1211  18.0281

          k = 0.0000 0.0000-0.1455 (   697 PWs)   bands (ev):

    -4.5497   3.2122   8.1741   8.1741  11.3828  14.1562  14.1562  15.8936

          k = 0.2500 0.1443 0.0000 (   681 PWs)   bands (ev):

    -3.6967   4.3221   5.7684   6.5101  10.2984  13.1165  14.5810  17.0309

          k = 0.2500 0.4330 0.1455 (   684 PWs)   bands (ev):

    -1.3965   2.1623   3.2397   6.3799  10.0624  14.1966  14.9079  16.2485

          k = 0.2500 0.1443 0.2909 (   680 PWs)   bands (ev):

    -2.9073   2.3497   4.7869   6.7418  11.5392  13.6809  16.1211  18.0281

          k = 0.2500 0.4330 0.4364 (   674 PWs)   bands (ev):

    -0.5748   2.7987   3.7030   3.7188   7.6358  12.4494  17.2204  18.2374

          k = 0.2500 0.1443-0.2909 (   680 PWs)   bands (ev):

    -2.9073   2.3497   4.7869   6.7418  11.5392  13.6809  16.1211  18.0281

          k = 0.2500 0.4330-0.1455 (   684 PWs)   bands (ev):

    -1.3965   2.1623   3.2397   6.3799  10.0624  14.1966  14.9079  16.2485

          k = 0.2500 0.4330 0.0000 (   673 PWs)   bands (ev):

    -1.5955   1.9992   3.1104   7.7211  11.4346  12.3899  14.7394  16.0952

          k = 0.2500 0.7217 0.1455 (   684 PWs)   bands (ev):

    -1.3965   2.1623   3.2397   6.3799  10.0624  14.1966  14.9079  16.2485

          k = 0.2500 0.4330 0.2909 (   678 PWs)   bands (ev):

    -0.9037   2.5530   3.5246   4.5533   8.3547  13.1327  16.8169  17.8007

          k = 0.2500 0.7217 0.4364 (   674 PWs)   bands (ev):

    -0.5748   2.7987   3.7030   3.7188   7.6358  12.4494  17.2204  18.2374

          k = 0.2500 0.4330-0.2909 (   678 PWs)   bands (ev):

    -0.9037   2.5530   3.5246   4.5533   8.3547  13.1327  16.8169  17.8007

          k = 0.2500 0.7217-0.1455 (   684 PWs)   bands (ev):

    -1.3965   2.1623   3.2397   6.3799  10.0624  14.1966  14.9079  16.2485

          k = 0.2500-0.4330 0.0000 (   673 PWs)   bands (ev):

    -1.5955   1.9992   3.1104   7.7211  11.4346  12.3899  14.7394  16.0952

          k = 0.2500-0.1443 0.1455 (   677 PWs)   bands (ev):

    -3.4736   4.2713   4.5113   6.5843  12.0431  13.1161  13.7450  18.2343

          k = 0.2500-0.4330 0.2909 (   678 PWs)   bands (ev):

    -0.9037   2.5530   3.5246   4.5533   8.3547  13.1327  16.8169  17.8007

          k = 0.2500-0.1443 0.4364 (   690 PWs)   bands (ev):

    -2.5101   1.4487   4.9711   6.8246  10.9392  13.9994  17.7964  18.2336

          k = 0.2500-0.4330-0.2909 (   678 PWs)   bands (ev):

    -0.9037   2.5530   3.5246   4.5533   8.3547  13.1327  16.8169  17.8007

          k = 0.2500-0.1443-0.1455 (   677 PWs)   bands (ev):

    -3.4736   4.2713   4.5113   6.5843  12.0431  13.1161  13.7450  18.2343

          k = 0.2500-0.1443 0.0000 (   681 PWs)   bands (ev):

    -3.6967   4.3221   5.7684   6.5101  10.2984  13.1165  14.5810  17.0309

          k = 0.2500 0.1443 0.1455 (   677 PWs)   bands (ev):

    -3.4736   4.2713   4.5113   6.5843  12.0431  13.1161  13.7450  18.2343

          k = 0.2500-0.1443 0.2909 (   680 PWs)   bands (ev):

    -2.9073   2.3497   4.7869   6.7418  11.5392  13.6809  16.1211  18.0281

          k = 0.2500 0.1443 0.4364 (   690 PWs)   bands (ev):

    -2.5101   1.4487   4.9711   6.8246  10.9392  13.9994  17.7964  18.2336

          k = 0.2500-0.1443-0.2909 (   680 PWs)   bands (ev):

[...]

          k = 0.2500 0.1443-0.1455 (   677 PWs)   bands (ev):

    -3.4736   4.2713   4.5113   6.5843  12.0431  13.1161  13.7450  18.2343

          k = 0.0000-0.2887-0.2909 (   680 PWs)   bands (ev):

    -2.9073   2.3497   4.7869   6.7418  11.5392  13.6809  16.1211  18.0281

          k = 0.2500 0.1443-0.7273 (   677 PWs)   bands (ev):

    -3.4736   4.2713   4.5113   6.5843  12.0431  13.1161  13.7450  18.2343

          k = 0.2500 0.1443 0.0000 (   681 PWs)   bands (ev):

    -3.6967   4.3221   5.7684   6.5101  10.2984  13.1165  14.5810  17.0309

          k = 0.5000 0.5774-0.4364 (   674 PWs)   bands (ev):

    -0.5748   2.7987   3.7030   3.7188   7.6358  12.4494  17.2204  18.2374

          k = 0.2500 0.1443 0.2909 (   680 PWs)   bands (ev):

    -2.9073   2.3497   4.7869   6.7418  11.5392  13.6809  16.1211  18.0281

          k = 0.5000 0.5774-0.1455 (   684 PWs)   bands (ev):

    -1.3965   2.1623   3.2397   6.3799  10.0624  14.1966  14.9079  16.2485

          k = 0.2500 0.1443-0.2909 (   680 PWs)   bands (ev):

    -2.9073   2.3497   4.7869   6.7418  11.5392  13.6809  16.1211  18.0281

          k = 0.5000 0.5774-0.7273 (   684 PWs)   bands (ev):

    -1.3965   2.1623   3.2397   6.3799  10.0624  14.1966  14.9079  16.2485

          k = 0.2500 0.4330 0.0000 (   673 PWs)   bands (ev):

    -1.5955   1.9992   3.1104   7.7211  11.4346  12.3899  14.7394  16.0952

          k = 0.5000 0.8660-0.4364 (   676 PWs)   bands (ev):

     0.1220   0.7477   4.1205   5.8185   6.4053  13.4894  16.5345  16.6638

          k = 0.2500 0.4330 0.2909 (   678 PWs)   bands (ev):

    -0.9037   2.5530   3.5246   4.5533   8.3547  13.1327  16.8169  17.8007

          k = 0.5000 0.8660-0.1455 (   662 PWs)   bands (ev):

    -0.6675   0.0267   5.5994   6.6607   9.0584  12.3432  14.8161  16.3850

          k = 0.2500 0.4330-0.2909 (   678 PWs)   bands (ev):

    -0.9037   2.5530   3.5246   4.5533   8.3547  13.1327  16.8169  17.8007

          k = 0.5000 0.8660-0.7273 (   662 PWs)   bands (ev):

    -0.6675   0.0267   5.5994   6.6607   9.0584  12.3432  14.8161  16.3850

          k = 0.2500-0.4330 0.0000 (   673 PWs)   bands (ev):

    -1.5955   1.9992   3.1104   7.7211  11.4346  12.3899  14.7394  16.0952

          k = 0.5000 0.0000-0.4364 (   674 PWs)   bands (ev):

    -0.5748   2.7987   3.7030   3.7188   7.6358  12.4494  17.2204  18.2374

          k = 0.2500-0.4330 0.2909 (   678 PWs)   bands (ev):

    -0.9037   2.5530   3.5246   4.5533   8.3547  13.1327  16.8169  17.8007

          k = 0.5000 0.0000-0.1455 (   684 PWs)   bands (ev):

    -1.3965   2.1623   3.2397   6.3799  10.0624  14.1966  14.9079  16.2485

          k = 0.2500-0.4330-0.2909 (   678 PWs)   bands (ev):

    -0.9037   2.5530   3.5246   4.5533   8.3547  13.1327  16.8169  17.8007

          k = 0.5000 0.0000-0.7273 (   684 PWs)   bands (ev):

    -1.3965   2.1623   3.2397   6.3799  10.0624  14.1966  14.9079  16.2485

          k = 0.2500-0.1443 0.0000 (   681 PWs)   bands (ev):

    -3.6967   4.3221   5.7684   6.5101  10.2984  13.1165  14.5810  17.0309

          k = 0.5000 0.2887-0.4364 (   676 PWs)   bands (ev):

     0.1220   0.7477   4.1205   5.8185   6.4053  13.4894  16.5345  16.6638

          k = 0.2500-0.1443 0.2909 (   680 PWs)   bands (ev):

    -2.9073   2.3497   4.7869   6.7418  11.5392  13.6809  16.1211  18.0281

          k = 0.5000 0.2887-0.1455 (   662 PWs)   bands (ev):

    -0.6675   0.0267   5.5994   6.6607   9.0584  12.3432  14.8161  16.3850

          k = 0.2500-0.1443-0.2909 (   680 PWs)   bands (ev):

    -2.9073   2.3497   4.7869   6.7418  11.5392  13.6809  16.1211  18.0281

          k = 0.5000 0.2887-0.7273 (   662 PWs)   bands (ev):

    -0.6675   0.0267   5.5994   6.6607   9.0584  12.3432  14.8161  16.3850

          k =-0.5000-0.2887 0.0000 (   676 PWs)   bands (ev):

    -0.8559  -0.1616   5.5309   7.8975  10.7860  11.6276  13.0221  14.8253

          k =-0.2500 0.1443-0.4364 (   690 PWs)   bands (ev):

    -2.5101   1.4487   4.9711   6.8246  10.9392  13.9994  17.7964  18.2336

          k =-0.5000-0.2887 0.2909 (   670 PWs)   bands (ev):

    -0.1967   0.4723   4.9116   5.7426   7.1851  13.0425  17.1668  18.1844

          k =-0.2500 0.1443-0.1455 (   677 PWs)   bands (ev):

    -3.4736   4.2713   4.5113   6.5843  12.0431  13.1161  13.7450  18.2343

          k =-0.5000-0.2887-0.2909 (   670 PWs)   bands (ev):

    -0.1967   0.4723   4.9116   5.7426   7.1851  13.0425  17.1668  18.1844

          k =-0.2500 0.1443-0.7273 (   677 PWs)   bands (ev):

    -3.4736   4.2713   4.5113   6.5843  12.0431  13.1161  13.7450  18.2343

          k =-0.5000-0.0000 0.0000 (   673 PWs)   bands (ev):

    -1.5955   1.9992   3.1104   7.7211  11.4346  12.3899  14.7394  16.0952

          k =-0.2500 0.4330-0.4364 (   674 PWs)   bands (ev):

    -0.5748   2.7987   3.7030   3.7188   7.6358  12.4494  17.2204  18.2374

          k =-0.5000-0.0000 0.2909 (   678 PWs)   bands (ev):

    -0.9037   2.5530   3.5246   4.5533   8.3547  13.1327  16.8169  17.8007

          k =-0.2500 0.4330-0.1455 (   684 PWs)   bands (ev):

    -1.3965   2.1623   3.2397   6.3799  10.0624  14.1966  14.9079  16.2485

          k =-0.5000-0.0000-0.2909 (   678 PWs)   bands (ev):

    -0.9037   2.5530   3.5246   4.5533   8.3547  13.1327  16.8169  17.8007

          k =-0.2500 0.4330-0.7273 (   684 PWs)   bands (ev):

    -1.3965   2.1623   3.2397   6.3799  10.0624  14.1966  14.9079  16.2485

          k =-0.5000-0.8660 0.0000 (   676 PWs)   bands (ev):

    -0.8559  -0.1616   5.5309   7.8975  10.7860  11.6276  13.0221  14.8253

          k =-0.2500-0.4330-0.4364 (   674 PWs)   bands (ev):

    -0.5748   2.7987   3.7030   3.7188   7.6358  12.4494  17.2204  18.2374

          k =-0.5000-0.8660 0.2909 (   670 PWs)   bands (ev):

    -0.1967   0.4723   4.9116   5.7426   7.1851  13.0425  17.1668  18.1844

          k =-0.2500-0.4330-0.1455 (   684 PWs)   bands (ev):

    -1.3965   2.1623   3.2397   6.3799  10.0624  14.1966  14.9079  16.2485

          k =-0.5000-0.8660-0.2909 (   670 PWs)   bands (ev):

    -0.1967   0.4723   4.9116   5.7426   7.1851  13.0425  17.1668  18.1844

          k =-0.2500-0.4330-0.7273 (   684 PWs)   bands (ev):

    -1.3965   2.1623   3.2397   6.3799  10.0624  14.1966  14.9079  16.2485

          k =-0.5000-0.5774 0.0000 (   673 PWs)   bands (ev):

    -1.5955   1.9992   3.1104   7.7211  11.4346  12.3899  14.7394  16.0952

          k =-0.2500-0.1443-0.4364 (   690 PWs)   bands (ev):

    -2.5101   1.4487   4.9711   6.8246  10.9392  13.9994  17.7964  18.2336

          k =-0.5000-0.5774 0.2909 (   678 PWs)   bands (ev):

    -0.9037   2.5530   3.5246   4.5533   8.3547  13.1327  16.8169  17.8007

          k =-0.2500-0.1443-0.1455 (   677 PWs)   bands (ev):

    -3.4736   4.2713   4.5113   6.5843  12.0431  13.1161  13.7450  18.2343

          k =-0.5000-0.5774-0.2909 (   678 PWs)   bands (ev):

    -0.9037   2.5530   3.5246   4.5533   8.3547  13.1327  16.8169  17.8007

          k =-0.2500-0.1443-0.7273 (   677 PWs)   bands (ev):

    -3.4736   4.2713   4.5113   6.5843  12.0431  13.1161  13.7450  18.2343

          k =-0.2500-0.1443 0.0000 (   681 PWs)   bands (ev):

    -3.6967   4.3221   5.7684   6.5101  10.2984  13.1165  14.5810  17.0309

          k = 0.0000 0.2887-0.4364 (   690 PWs)   bands (ev):

    -2.5101   1.4487   4.9711   6.8246  10.9392  13.9994  17.7964  18.2336

          k =-0.2500-0.1443 0.2909 (   680 PWs)   bands (ev):

    -2.9073   2.3497   4.7869   6.7418  11.5392  13.6809  16.1211  18.0281

          k = 0.0000 0.2887-0.1455 (   677 PWs)   bands (ev):

    -3.4736   4.2713   4.5113   6.5843  12.0431  13.1161  13.7450  18.2343

          k =-0.2500-0.1443-0.2909 (   680 PWs)   bands (ev):

    -2.9073   2.3497   4.7869   6.7418  11.5392  13.6809  16.1211  18.0281

          k = 0.0000 0.2887-0.7273 (   677 PWs)   bands (ev):

    -3.4736   4.2713   4.5113   6.5843  12.0431  13.1161  13.7450  18.2343

          k =-0.2500 0.1443 0.0000 (   681 PWs)   bands (ev):

    -3.6967   4.3221   5.7684   6.5101  10.2984  13.1165  14.5810  17.0309

          k = 0.0000 0.5774-0.4364 (   676 PWs)   bands (ev):

     0.1220   0.7477   4.1205   5.8185   6.4053  13.4894  16.5345  16.6638

          k =-0.2500 0.1443 0.2909 (   680 PWs)   bands (ev):

    -2.9073   2.3497   4.7869   6.7418  11.5392  13.6809  16.1211  18.0281

          k = 0.0000 0.5774-0.1455 (   662 PWs)   bands (ev):

    -0.6675   0.0267   5.5994   6.6607   9.0584  12.3432  14.8161  16.3850

          k =-0.2500 0.1443-0.2909 (   680 PWs)   bands (ev):

    -2.9073   2.3497   4.7869   6.7418  11.5392  13.6809  16.1211  18.0281

          k = 0.0000 0.5774-0.7273 (   662 PWs)   bands (ev):

    -0.6675   0.0267   5.5994   6.6607   9.0584  12.3432  14.8161  16.3850

          k =-0.2500-0.7217 0.0000 (   673 PWs)   bands (ev):

    -1.5955   1.9992   3.1104   7.7211  11.4346  12.3899  14.7394  16.0952

          k = 0.0000-0.2887-0.4364 (   690 PWs)   bands (ev):

    -2.5101   1.4487   4.9711   6.8246  10.9392  13.9994  17.7964  18.2336

          k =-0.2500-0.7217 0.2909 (   678 PWs)   bands (ev):

    -0.9037   2.5530   3.5246   4.5533   8.3547  13.1327  16.8169  17.8007

          k = 0.0000-0.2887-0.1455 (   677 PWs)   bands (ev):

    -3.4736   4.2713   4.5113   6.5843  12.0431  13.1161  13.7450  18.2343

          k =-0.2500-0.7217-0.2909 (   678 PWs)   bands (ev):

    -0.9037   2.5530   3.5246   4.5533   8.3547  13.1327  16.8169  17.8007

          k = 0.0000-0.2887-0.7273 (   677 PWs)   bands (ev):

    -3.4736   4.2713   4.5113   6.5843  12.0431  13.1161  13.7450  18.2343

          k =-0.2500-0.4330 0.0000 (   673 PWs)   bands (ev):

    -1.5955   1.9992   3.1104   7.7211  11.4346  12.3899  14.7394  16.0952

          k = 0.0000 0.0000-0.4364 (   684 PWs)   bands (ev):

    -3.4999   0.2155   8.4616   8.4616  14.4076  14.4076  15.7557  17.7397

          k =-0.2500-0.4330 0.2909 (   678 PWs)   bands (ev):

    -0.9037   2.5530   3.5246   4.5533   8.3547  13.1327  16.8169  17.8007

          k = 0.0000 0.0000-0.1455 (   697 PWs)   bands (ev):

    -4.5497   3.2122   8.1741   8.1741  11.3828  14.1562  14.1562  15.8936

          k =-0.2500-0.4330-0.2909 (   678 PWs)   bands (ev):

    -0.9037   2.5530   3.5246   4.5533   8.3547  13.1327  16.8169  17.8007

          k = 0.0000 0.0000-0.7273 (   697 PWs)   bands (ev):

    -4.5497   3.2122   8.1741   8.1741  11.3828  14.1562  14.1562  15.8936

     the Fermi energy is     7.7432 ev

     Writing config to output data dir ./_ph0/pwscf.q_8/pwscf.save/ :
     XML data file
 
     [dfpt_tetra]  Dos(E_F)[/Ry] :   0.1053843E+02

     Electron-phonon matrix                                                     

     bravais-lattice index     =            0
     lattice parameter (alat)  =       5.8042  a.u.
     unit-cell volume          =     194.0373 (a.u.)^3
     number of atoms/cell      =            3
     number of atomic types    =            2
     kinetic-energy cut-off    =      35.0000  Ry
     charge density cut-off    =     280.0000  Ry
     convergence threshold     =      1.0E-12
     beta                      =       0.7000
     number of iterations used =            4
     Exchange-correlation= PBE
                           (   1   4   3   4   0   0   0)


     celldm(1)=    5.80420  celldm(2)=    0.00000  celldm(3)=    0.00000
     celldm(4)=    0.00000  celldm(5)=    0.00000  celldm(6)=    0.00000

     crystal axes: (cart. coord. in units of alat)
               a(1) = (  1.0000  0.0000  0.0000 )  
               a(2) = ( -0.5000  0.8660  0.0000 )  
               a(3) = (  0.0000  0.0000  1.1458 )  

     reciprocal axes: (cart. coord. in units 2 pi/alat)
               b(1) = (  1.0000  0.5774  0.0000 )  
               b(2) = (  0.0000  1.1547  0.0000 )  
               b(3) = (  0.0000  0.0000  0.8727 )  


     Atoms inside the unit cell: 

     Cartesian axes

     site n.  atom      mass           positions (alat units)
        1  Mg     24.3050   tau(    1) = (    0.00000    0.00000    0.00000  )
        2  B      10.8110   tau(    2) = (   -0.00000    0.57735    0.57292  )
        3  B      10.8110   tau(    3) = (    0.50000    0.28868    0.57292  )

     Computing dynamical matrix for 
                    q = (   0.2500000   0.4330127  -0.4363586 )
 
      4 Sym.Ops. (no q -> -q+G )


     G cutoff =  238.9372  (  15395 G-vectors)     FFT grid: ( 32, 32, 36)
     G cutoff =  119.4686  (   5449 G-vectors)  smooth grid: ( 24, 24, 25)
     number of k points=    96

     PseudoPot. # 1 for B  read from file:
     ./B.pbe-n-kjpaw_psl.0.1.upf
     MD5 check sum: b4345a612e0782cca08559f453f3313f
     Pseudo is Projector augmented-wave + core cor, Zval =  3.0
     Generated using "atomic" code by A. Dal Corso  v.5.0.99 svn rev. 10869
     Shape of augmentation charge: BESSEL
     Using radial grid of 1059 points,  4 beta functions with: 
                l(1) =   0
                l(2) =   0
                l(3) =   1
                l(4) =   1
     Q(r) pseudized with 0 coefficients 


     PseudoPot. # 2 for Mg read from file:
     ./Mg.pbe-n-kjpaw_psl.0.3.0.upf
     MD5 check sum: 9eaefceb6cf3903db1b93e4e5c6adf9a
     Pseudo is Projector augmented-wave + core cor, Zval =  2.0
     Generated using "atomic" code by A. Dal Corso  v.5.0.99 svn rev. 10869
     Shape of augmentation charge: PSQ
     Using radial grid of 1129 points,  4 beta functions with: 
                l(1) =   0
                l(2) =   0
                l(3) =   1
                l(4) =   1
     Q(r) pseudized with 0 coefficients 



     Atomic displacements:
     There are    9 irreducible representations

     Representation     1      1 modes -  To be done

     Representation     2      1 modes -  To be done

     Representation     3      1 modes -  To be done

     Representation     4      1 modes -  To be done

     Representation     5      1 modes -  To be done

     Representation     6      1 modes -  To be done

     Representation     7      1 modes -  To be done

     Representation     8      1 modes -  To be done

     Representation     9      1 modes -  To be done


     PHONON       :     21.91s CPU     24.69s WALL

     Reading dVscf from file dv
     Reading dynamics matrix from file matdyn8

     Diagonalizing the dynamical matrix

     q = (    0.250000000   0.433012702  -0.436358562 ) 

 **************************************************************************
     freq (    1) =       8.190985 [THz] =     273.221850 [cm-1]
     freq (    2) =       8.360844 [THz] =     278.887751 [cm-1]
     freq (    3) =       8.958723 [THz] =     298.830827 [cm-1]
     freq (    4) =      14.173237 [THz] =     472.768288 [cm-1]
     freq (    5) =      16.977459 [THz] =     566.307063 [cm-1]
     freq (    6) =      17.003287 [THz] =     567.168602 [cm-1]
     freq (    7) =      19.425063 [THz] =     647.950342 [cm-1]
     freq (    8) =      21.976546 [THz] =     733.058678 [cm-1]
     freq (    9) =      23.795585 [THz] =     793.735272 [cm-1]
 **************************************************************************
 [elph_scdft]  write elph.dat with symmetries (only on Fermi surfaces)
 [elph_scdft]   Lowest band which contains FS :            3
 [elph_scdft]  Highest band which contains FS :            5
 [elph_scdft]    # of bands which contains FS :            3
 
     init_run     :      0.80s CPU      0.92s WALL (       8 calls)
     electrons    :      0.94s CPU      1.15s WALL (       8 calls)

     Called by init_run:
     wfcinit      :      0.00s CPU      0.03s WALL (       8 calls)
     potinit      :      0.42s CPU      0.51s WALL (       8 calls)
     hinit0       :      0.26s CPU      0.26s WALL (       8 calls)

     Called by electrons:
     c_bands      :      0.92s CPU      1.13s WALL (       8 calls)
     v_of_rho     :      0.11s CPU      0.11s WALL (       9 calls)
     newd         :      0.01s CPU      0.01s WALL (       9 calls)
     PAW_pot      :      0.19s CPU      0.19s WALL (       9 calls)

     Called by c_bands:
     init_us_2    :      0.02s CPU      0.03s WALL (     106 calls)
     cegterg      :      0.28s CPU      0.29s WALL (      17 calls)

     Called by *egterg:
     cdiaghg      :      0.03s CPU      0.04s WALL (     239 calls)
     h_psi        :      0.21s CPU      0.22s WALL (     256 calls)
     s_psi        :      0.01s CPU      0.01s WALL (     256 calls)
     g_psi        :      0.00s CPU      0.00s WALL (     223 calls)

     Called by h_psi:
     h_psi:calbec :      0.01s CPU      0.01s WALL (     256 calls)
     vloc_psi     :      0.19s CPU      0.20s WALL (     256 calls)
     add_vuspsi   :      0.01s CPU      0.01s WALL (     256 calls)

     General routines
     calbec       :      0.02s CPU      0.02s WALL (     392 calls)
     fft          :      0.09s CPU      0.09s WALL (     452 calls)
     ffts         :      0.02s CPU      0.02s WALL (     304 calls)
     fftw         :      0.21s CPU      0.22s WALL (    5674 calls)
     interpolate  :      0.07s CPU      0.07s WALL (     160 calls)
     davcio       :      0.04s CPU      0.24s WALL (     265 calls)
 
     Parallel routines
 
     PHONON       :     23.19s CPU     26.09s WALL

     INITIALIZATION: 
     phq_setup    :      0.35s CPU      0.43s WALL (       8 calls)
     phq_init     :     10.23s CPU     10.32s WALL (       8 calls)
 
     phq_init     :     10.23s CPU     10.32s WALL (       8 calls)
     set_drhoc    :      0.06s CPU      0.06s WALL (       8 calls)
     init_vloc    :      0.03s CPU      0.03s WALL (       9 calls)
     init_us_1    :      0.15s CPU      0.15s WALL (       9 calls)
     init_us_2    :      0.02s CPU      0.03s WALL (     106 calls)
     newd         :      0.01s CPU      0.01s WALL (       9 calls)
     dvanqq       :      8.60s CPU      8.61s WALL (      16 calls)
     drho         :      5.92s CPU      5.98s WALL (       8 calls)
     drhous       :      0.06s CPU      0.08s WALL (       8 calls)
     nldyntot     :      0.00s CPU      0.00s WALL (       8 calls)
     newdq        :      4.41s CPU      4.42s WALL (      66 calls)
     adddvscf     :      0.01s CPU      0.01s WALL (      72 calls)
     com_dvloc    :      0.02s CPU      0.02s WALL (     144 calls)
                                        0.00s GPU  (     144 calls)
 
     dvqpsi_us    :      0.10s CPU      0.10s WALL (      72 calls)
                                        0.00s GPU  (      72 calls)
     dvqpsi_us_on :      0.02s CPU      0.02s WALL (      72 calls)
 
     add_vuspsi   :      0.01s CPU      0.01s WALL (     256 calls)
     addusdbec    :      0.00s CPU      0.00s WALL (      72 calls)
 
 
      Electron-phonon coupling
     elphon       :      5.84s CPU      5.85s WALL (       8 calls)
     elphel       :      0.15s CPU      0.15s WALL (      66 calls)
 
      General routines
     calbec       :      0.02s CPU      0.02s WALL (     392 calls)
     fft          :      0.09s CPU      0.09s WALL (     452 calls)
     ffts         :      0.02s CPU      0.02s WALL (     304 calls)
     fftw         :      0.21s CPU      0.22s WALL (    5674 calls)
     davcio       :      0.04s CPU      0.24s WALL (     265 calls)
 
      Additional routines
     h_psi_bgrp   :      0.21s CPU      0.22s WALL (     256 calls)
     h_psi        :      0.21s CPU      0.22s WALL (     256 calls)
     h_psi:pot    :      0.21s CPU      0.22s WALL (     256 calls)
     h_psi:calbec :      0.01s CPU      0.01s WALL (     256 calls)
     s_psi_bgrp   :      0.01s CPU      0.01s WALL (     256 calls)
     s_psi        :      0.01s CPU      0.01s WALL (     256 calls)
 
 
     PHONON       :     23.19s CPU     26.09s WALL

 
   This run was terminated on:  23: 0:29  15Mar2026            

=------------------------------------------------------------------------------=
   JOB DONE.
=------------------------------------------------------------------------------=
