--------------------------------------------------------------------------
Open MPI's OFI driver detected multiple equidistant NICs from the current process,
but had insufficient information to ensure MPI processes fairly pick a NIC for use.
This may negatively impact performance. A more modern PMIx server is necessary to
resolve this issue.

Note: This message is displayed only when the OFI component's verbosity level is
-375465808 or higher.
--------------------------------------------------------------------------
--------------------------------------------------------------------------
WARNING: There was an error initializing an OpenFabrics device.

  Local host:   macloud1
  Local device: mlx4_0
--------------------------------------------------------------------------

     Program PHONON v.6.7GPU starts on 29Jun2022 at 11:17:58 

     This program is part of the open-source Quantum ESPRESSO suite
     for quantum simulation of materials; please cite
         "P. Giannozzi et al., J. Phys.:Condens. Matter 21 395502 (2009);
         "P. Giannozzi et al., J. Phys.:Condens. Matter 29 465901 (2017);
         "P. Giannozzi et al., J. Chem. Phys. 152 154105 (2020);
          URL http://www.quantum-espresso.org", 
     in publications or presentations arising from this work. More details at
     http://www.quantum-espresso.org/quote

     Parallel version (MPI & OpenMP), running on      24 processor cores
     Number of MPI processes:                24
     Threads/MPI process:                     1

     MPI processes distributed on     1 nodes
     K-points division:     npool     =      24
     Reading input from epmat.in

     Reading xml data from directory:

     ./pwscf.save/
     file B.pbe-n-kjpaw_psl.0.1.upf: wavefunction(s)  2P renormalized
     file Mg.pbe-n-kjpaw_psl.0.3.0.upf: wavefunction(s)  3S renormalized

     IMPORTANT: XC functional enforced from input :
     Exchange-correlation= PBE
                           (   1   4   3   4   0   0   0)
     Any further DFT definition will be discarded
     Please, verify this is what you really want


     G-vector sticks info
     --------------------
     sticks:   dense  smooth     PW     G-vecs:    dense   smooth      PW
     Sum         649     313    109                15395     5449    1011

     Using Slab Decomposition


     Check: negative core charge=   -0.000006
     Reading collected, re-writing distributed wavefunctions


     Dynamical matrices for ( 4, 4, 3)  uniform grid of q-points
     With a half shift
     (  12 q-points):
       N         xq(1)         xq(2)         xq(3) 
       1   0.125000000   0.216506351   0.145452854
       2   0.125000000   0.216506351  -0.436358562
       3   0.125000000   0.505181486   0.145452854
       4   0.125000000   0.505181486  -0.436358562
       5   0.125000000  -0.360843918   0.145452854
       6   0.125000000  -0.360843918  -0.436358562
       7   0.125000000  -0.072168784   0.145452854
       8   0.125000000  -0.072168784  -0.436358562
       9   0.375000000   0.649519053   0.145452854
      10   0.375000000   0.649519053  -0.436358562
      11   0.375000000  -0.216506351   0.145452854
      12   0.375000000  -0.216506351  -0.436358562
     Because shifted q grid is used, q2r will not work !

     Saving dvscf to file. Distribute only q points, not irreducible represetations.

     Calculation of q =    0.1250000   0.2165064   0.1454529

     Subspace diagonalization in iterative solution of the eigenvalue problem:
     a serial algorithm will be used

     Message from routine kpoint_grid:
     ATTENTION: skip check of k-points equivalence
     [opt_tetra]  Optimized tetrahedron method is used.

     G-vector sticks info
     --------------------
     sticks:   dense  smooth     PW     G-vecs:    dense   smooth      PW
     Sum         649     313    121                15395     5449    1155

     Using Slab Decomposition


     Title: 
     Electron-phonon matrix                                                     


     bravais-lattice index     =            0
     lattice parameter (alat)  =       5.8042  a.u.
     unit-cell volume          =     194.0373 (a.u.)^3
     number of atoms/cell      =            3
     number of atomic types    =            2
     number of electrons       =         8.00
     number of Kohn-Sham states=            8
     kinetic-energy cutoff     =      35.0000  Ry
     charge density cutoff     =     280.0000  Ry
     Exchange-correlation= PBE
                           (   1   4   3   4   0   0   0)

     celldm(1)=   5.804205  celldm(2)=   0.000000  celldm(3)=   0.000000
     celldm(4)=   0.000000  celldm(5)=   0.000000  celldm(6)=   0.000000

     crystal axes: (cart. coord. in units of alat)
               a(1) = (   1.000000   0.000000   0.000000 )  
               a(2) = (  -0.500000   0.866025   0.000000 )  
               a(3) = (   0.000000   0.000000   1.145847 )  

     reciprocal axes: (cart. coord. in units 2 pi/alat)
               b(1) = (  1.000000  0.577350 -0.000000 )  
               b(2) = (  0.000000  1.154701  0.000000 )  
               b(3) = (  0.000000 -0.000000  0.872717 )  


     PseudoPot. # 1 for B  read from file:
     ../../../pseudo/B.pbe-n-kjpaw_psl.0.1.upf
     MD5 check sum: b4345a612e0782cca08559f453f3313f
     Pseudo is Projector augmented-wave + core cor, Zval =  3.0
     Generated using "atomic" code by A. Dal Corso  v.5.0.99 svn rev. 10869
     Shape of augmentation charge: BESSEL
     Using radial grid of 1059 points,  4 beta functions with: 
                l(1) =   0
                l(2) =   0
                l(3) =   1
                l(4) =   1
     Q(r) pseudized with 0 coefficients 


     PseudoPot. # 2 for Mg read from file:
     ../../../pseudo/Mg.pbe-n-kjpaw_psl.0.3.0.upf
     MD5 check sum: 9eaefceb6cf3903db1b93e4e5c6adf9a
     Pseudo is Projector augmented-wave + core cor, Zval =  2.0
     Generated using "atomic" code by A. Dal Corso  v.5.0.99 svn rev. 10869
     Shape of augmentation charge: PSQ
     Using radial grid of 1129 points,  4 beta functions with: 
                l(1) =   0
                l(2) =   0
                l(3) =   1
                l(4) =   1
     Q(r) pseudized with 0 coefficients 


     atomic species   valence    mass     pseudopotential
        B              3.00    10.81100     B ( 1.00)
        Mg             2.00    24.30500     Mg( 1.00)

     24 Sym. Ops., with inversion, found



   Cartesian axes

     site n.     atom                  positions (alat units)
         1           Mg  tau(   1) = (   0.0000000   0.0000000   0.0000000  )
         2           B   tau(   2) = (  -0.0000000   0.5773503   0.5729233  )
         3           B   tau(   3) = (   0.5000000   0.2886751   0.5729233  )

     number of k points=    96 (tetrahedron method)
                       cart. coord. in units 2pi/alat
        k(    1) = (   0.0000000   0.0000000   0.0000000), wk =   0.0416667
        k(    2) = (   0.1250000   0.2165064   0.1454529), wk =   0.0000000
        k(    3) = (   0.0000000   0.0000000   0.2909057), wk =   0.0416667
        k(    4) = (   0.1250000   0.2165064   0.4363586), wk =   0.0000000
        k(    5) = (   0.0000000   0.0000000  -0.2909057), wk =   0.0416667
        k(    6) = (   0.1250000   0.2165064  -0.1454529), wk =   0.0000000
        k(    7) = (   0.0000000   0.2886751   0.0000000), wk =   0.0416667
        k(    8) = (   0.1250000   0.5051815   0.1454529), wk =   0.0000000
        k(    9) = (   0.0000000   0.2886751   0.2909057), wk =   0.0416667
        k(   10) = (   0.1250000   0.5051815   0.4363586), wk =   0.0000000
        k(   11) = (   0.0000000   0.2886751  -0.2909057), wk =   0.0416667
        k(   12) = (   0.1250000   0.5051815  -0.1454529), wk =   0.0000000
        k(   13) = (   0.0000000  -0.5773503   0.0000000), wk =   0.0416667
        k(   14) = (   0.1250000  -0.3608439   0.1454529), wk =   0.0000000
        k(   15) = (   0.0000000  -0.5773503   0.2909057), wk =   0.0416667
        k(   16) = (   0.1250000  -0.3608439   0.4363586), wk =   0.0000000
        k(   17) = (   0.0000000  -0.5773503  -0.2909057), wk =   0.0416667
        k(   18) = (   0.1250000  -0.3608439  -0.1454529), wk =   0.0000000
        k(   19) = (   0.0000000  -0.2886751   0.0000000), wk =   0.0416667
        k(   20) = (   0.1250000  -0.0721688   0.1454529), wk =   0.0000000
        k(   21) = (   0.0000000  -0.2886751   0.2909057), wk =   0.0416667
        k(   22) = (   0.1250000  -0.0721688   0.4363586), wk =   0.0000000
        k(   23) = (   0.0000000  -0.2886751  -0.2909057), wk =   0.0416667
        k(   24) = (   0.1250000  -0.0721688  -0.1454529), wk =   0.0000000
        k(   25) = (   0.2500000   0.1443376   0.0000000), wk =   0.0416667
        k(   26) = (   0.3750000   0.3608439   0.1454529), wk =   0.0000000
        k(   27) = (   0.2500000   0.1443376   0.2909057), wk =   0.0416667
        k(   28) = (   0.3750000   0.3608439   0.4363586), wk =   0.0000000
        k(   29) = (   0.2500000   0.1443376  -0.2909057), wk =   0.0416667
        k(   30) = (   0.3750000   0.3608439  -0.1454529), wk =   0.0000000
        k(   31) = (   0.2500000   0.4330127   0.0000000), wk =   0.0416667
        k(   32) = (   0.3750000   0.6495191   0.1454529), wk =   0.0000000
        k(   33) = (   0.2500000   0.4330127   0.2909057), wk =   0.0416667
        k(   34) = (   0.3750000   0.6495191   0.4363586), wk =   0.0000000
        k(   35) = (   0.2500000   0.4330127  -0.2909057), wk =   0.0416667
        k(   36) = (   0.3750000   0.6495191  -0.1454529), wk =   0.0000000
        k(   37) = (   0.2500000  -0.4330127   0.0000000), wk =   0.0416667
        k(   38) = (   0.3750000  -0.2165064   0.1454529), wk =   0.0000000
        k(   39) = (   0.2500000  -0.4330127   0.2909057), wk =   0.0416667
        k(   40) = (   0.3750000  -0.2165064   0.4363586), wk =   0.0000000
        k(   41) = (   0.2500000  -0.4330127  -0.2909057), wk =   0.0416667
        k(   42) = (   0.3750000  -0.2165064  -0.1454529), wk =   0.0000000
        k(   43) = (   0.2500000  -0.1443376   0.0000000), wk =   0.0416667
        k(   44) = (   0.3750000   0.0721688   0.1454529), wk =   0.0000000
        k(   45) = (   0.2500000  -0.1443376   0.2909057), wk =   0.0416667
        k(   46) = (   0.3750000   0.0721688   0.4363586), wk =   0.0000000
        k(   47) = (   0.2500000  -0.1443376  -0.2909057), wk =   0.0416667
        k(   48) = (   0.3750000   0.0721688  -0.1454529), wk =   0.0000000
        k(   49) = (  -0.5000000  -0.2886751   0.0000000), wk =   0.0416667
        k(   50) = (  -0.3750000  -0.0721688   0.1454529), wk =   0.0000000
        k(   51) = (  -0.5000000  -0.2886751   0.2909057), wk =   0.0416667
        k(   52) = (  -0.3750000  -0.0721688   0.4363586), wk =   0.0000000
        k(   53) = (  -0.5000000  -0.2886751  -0.2909057), wk =   0.0416667
        k(   54) = (  -0.3750000  -0.0721688  -0.1454529), wk =   0.0000000
        k(   55) = (  -0.5000000  -0.0000000   0.0000000), wk =   0.0416667
        k(   56) = (  -0.3750000   0.2165064   0.1454529), wk =   0.0000000
        k(   57) = (  -0.5000000  -0.0000000   0.2909057), wk =   0.0416667
        k(   58) = (  -0.3750000   0.2165064   0.4363586), wk =   0.0000000
        k(   59) = (  -0.5000000  -0.0000000  -0.2909057), wk =   0.0416667
        k(   60) = (  -0.3750000   0.2165064  -0.1454529), wk =   0.0000000
        k(   61) = (  -0.5000000  -0.8660254   0.0000000), wk =   0.0416667
        k(   62) = (  -0.3750000  -0.6495191   0.1454529), wk =   0.0000000
        k(   63) = (  -0.5000000  -0.8660254   0.2909057), wk =   0.0416667
        k(   64) = (  -0.3750000  -0.6495191   0.4363586), wk =   0.0000000
        k(   65) = (  -0.5000000  -0.8660254  -0.2909057), wk =   0.0416667
        k(   66) = (  -0.3750000  -0.6495191  -0.1454529), wk =   0.0000000
        k(   67) = (  -0.5000000  -0.5773503   0.0000000), wk =   0.0416667
        k(   68) = (  -0.3750000  -0.3608439   0.1454529), wk =   0.0000000
        k(   69) = (  -0.5000000  -0.5773503   0.2909057), wk =   0.0416667
        k(   70) = (  -0.3750000  -0.3608439   0.4363586), wk =   0.0000000
        k(   71) = (  -0.5000000  -0.5773503  -0.2909057), wk =   0.0416667
        k(   72) = (  -0.3750000  -0.3608439  -0.1454529), wk =   0.0000000
        k(   73) = (  -0.2500000  -0.1443376   0.0000000), wk =   0.0416667
        k(   74) = (  -0.1250000   0.0721688   0.1454529), wk =   0.0000000
        k(   75) = (  -0.2500000  -0.1443376   0.2909057), wk =   0.0416667
        k(   76) = (  -0.1250000   0.0721688   0.4363586), wk =   0.0000000
        k(   77) = (  -0.2500000  -0.1443376  -0.2909057), wk =   0.0416667
        k(   78) = (  -0.1250000   0.0721688  -0.1454529), wk =   0.0000000
        k(   79) = (  -0.2500000   0.1443376   0.0000000), wk =   0.0416667
        k(   80) = (  -0.1250000   0.3608439   0.1454529), wk =   0.0000000
        k(   81) = (  -0.2500000   0.1443376   0.2909057), wk =   0.0416667
        k(   82) = (  -0.1250000   0.3608439   0.4363586), wk =   0.0000000
        k(   83) = (  -0.2500000   0.1443376  -0.2909057), wk =   0.0416667
        k(   84) = (  -0.1250000   0.3608439  -0.1454529), wk =   0.0000000
        k(   85) = (  -0.2500000  -0.7216878   0.0000000), wk =   0.0416667
        k(   86) = (  -0.1250000  -0.5051815   0.1454529), wk =   0.0000000
        k(   87) = (  -0.2500000  -0.7216878   0.2909057), wk =   0.0416667
        k(   88) = (  -0.1250000  -0.5051815   0.4363586), wk =   0.0000000
        k(   89) = (  -0.2500000  -0.7216878  -0.2909057), wk =   0.0416667
        k(   90) = (  -0.1250000  -0.5051815  -0.1454529), wk =   0.0000000
        k(   91) = (  -0.2500000  -0.4330127   0.0000000), wk =   0.0416667
        k(   92) = (  -0.1250000  -0.2165064   0.1454529), wk =   0.0000000
        k(   93) = (  -0.2500000  -0.4330127   0.2909057), wk =   0.0416667
        k(   94) = (  -0.1250000  -0.2165064   0.4363586), wk =   0.0000000
        k(   95) = (  -0.2500000  -0.4330127  -0.2909057), wk =   0.0416667
        k(   96) = (  -0.1250000  -0.2165064  -0.1454529), wk =   0.0000000

     Dense  grid:    15395 G-vectors     FFT dimensions: (  32,  32,  36)

     Smooth grid:     5449 G-vectors     FFT dimensions: (  24,  24,  25)

     Estimated max dynamical RAM per process >       7.22 MB

     Estimated total dynamical RAM >     173.27 MB

     Check: negative core charge=   -0.000006

     The potential is recalculated from file :
     ./_ph0/pwscf.q_1/pwscf.save/charge-density

     Starting wfcs are   12 atomic wfcs
     Checking if some PAW data can be deallocated... 

     Band Structure Calculation
     Davidson diagonalization with overlap
At line 106 of file init_us_2_base.f90
Fortran runtime warning: An array temporary was created
At line 106 of file init_us_2_base.f90
Fortran runtime warning: An array temporary was created
At line 106 of file init_us_2_base.f90
Fortran runtime warning: An array temporary was created
At line 106 of file init_us_2_base.f90
Fortran runtime warning: An array temporary was created
At line 106 of file init_us_2_base.f90
Fortran runtime warning: An array temporary was created
At line 106 of file init_us_2_base.f90
Fortran runtime warning: An array temporary was created
At line 106 of file init_us_2_base.f90
Fortran runtime warning: An array temporary was created
At line 106 of file init_us_2_base.f90
Fortran runtime warning: An array temporary was created
At line 106 of file init_us_2_base.f90
Fortran runtime warning: An array temporary was created
At line 106 of file init_us_2_base.f90
Fortran runtime warning: An array temporary was created
At line 106 of file init_us_2_base.f90
Fortran runtime warning: An array temporary was created
At line 106 of file init_us_2_base.f90
Fortran runtime warning: An array temporary was created
At line 106 of file init_us_2_base.f90
Fortran runtime warning: An array temporary was created
At line 106 of file init_us_2_base.f90
Fortran runtime warning: An array temporary was created
At line 106 of file init_us_2_base.f90
Fortran runtime warning: An array temporary was created
At line 106 of file init_us_2_base.f90
Fortran runtime warning: An array temporary was created
At line 106 of file init_us_2_base.f90
Fortran runtime warning: An array temporary was created
At line 106 of file init_us_2_base.f90
Fortran runtime warning: An array temporary was created
At line 106 of file init_us_2_base.f90
Fortran runtime warning: An array temporary was created
At line 106 of file init_us_2_base.f90
Fortran runtime warning: An array temporary was created
At line 106 of file init_us_2_base.f90
Fortran runtime warning: An array temporary was created
At line 106 of file init_us_2_base.f90
Fortran runtime warning: An array temporary was created
At line 106 of file init_us_2_base.f90
Fortran runtime warning: An array temporary was created
At line 106 of file init_us_2_base.f90
Fortran runtime warning: An array temporary was created
At line 1740 of file mp.f90
Fortran runtime warning: An array temporary was created
At line 1740 of file mp.f90
Fortran runtime warning: An array temporary was created
At line 1740 of file mp.f90
Fortran runtime warning: An array temporary was created
At line 1740 of file mp.f90
Fortran runtime warning: An array temporary was created
At line 1740 of file mp.f90
Fortran runtime warning: An array temporary was created
At line 1740 of file mp.f90
Fortran runtime warning: An array temporary was created
At line 1740 of file mp.f90
Fortran runtime warning: An array temporary was created
At line 1740 of file mp.f90
Fortran runtime warning: An array temporary was created
At line 1740 of file mp.f90
Fortran runtime warning: An array temporary was created
At line 1740 of file mp.f90
Fortran runtime warning: An array temporary was created
At line 1740 of file mp.f90
Fortran runtime warning: An array temporary was created
At line 1740 of file mp.f90
Fortran runtime warning: An array temporary was created
At line 1740 of file mp.f90
Fortran runtime warning: An array temporary was created
At line 1740 of file mp.f90
Fortran runtime warning: An array temporary was created
At line 1740 of file mp.f90
Fortran runtime warning: An array temporary was created
At line 1740 of file mp.f90
Fortran runtime warning: An array temporary was created
At line 1740 of file mp.f90
Fortran runtime warning: An array temporary was created
At line 1740 of file mp.f90
Fortran runtime warning: An array temporary was created
At line 1740 of file mp.f90
Fortran runtime warning: An array temporary was created
At line 1740 of file mp.f90
Fortran runtime warning: An array temporary was created
At line 1740 of file mp.f90
Fortran runtime warning: An array temporary was created
At line 1740 of file mp.f90
Fortran runtime warning: An array temporary was created
At line 1740 of file mp.f90
Fortran runtime warning: An array temporary was created
At line 1740 of file mp.f90
Fortran runtime warning: An array temporary was created

     ethr =  1.25E-10,  avg # of iterations = 20.6

     total cpu time spent up to now is        1.3 secs

     End of band structure calculation

          k = 0.0000 0.0000 0.0000 (   709 PWs)   bands (ev):

    -4.7856   4.7169   8.0859   8.0859   9.3182  14.0810  14.0810  15.9413

          k = 0.1250 0.2165 0.1455 (   679 PWs)   bands (ev):

    -3.7408   4.0413   5.4799   6.3476  12.0822  13.8398  14.5571  15.8796

          k = 0.0000 0.0000 0.2909 (   690 PWs)   bands (ev):

    -3.9413   1.1725   8.3605   8.3605  14.3197  14.3197  15.0532  15.8003

          k = 0.1250 0.2165 0.4364 (   682 PWs)   bands (ev):

    -2.7568   1.1457   5.9356   6.6474  11.8775  14.9549  16.3499  16.4235

          k = 0.0000 0.0000-0.2909 (   690 PWs)   bands (ev):

    -3.9413   1.1725   8.3605   8.3605  14.3197  14.3197  15.0532  15.8003

          k = 0.1250 0.2165-0.1455 (   679 PWs)   bands (ev):

    -3.7408   4.0413   5.4799   6.3476  12.0822  13.8398  14.5571  15.8796

          k = 0.0000 0.2887 0.0000 (   681 PWs)   bands (ev):

    -3.6967   4.3221   5.7684   6.5101  10.2984  13.1165  14.5810  17.0309

          k = 0.1250 0.5052 0.1455 (   674 PWs)   bands (ev):

    -1.1540   0.9720   4.6047   6.5055   9.5495  13.5675  14.6325  16.1078

          k = 0.0000 0.2887 0.2909 (   680 PWs)   bands (ev):

    -2.9073   2.3497   4.7869   6.7418  11.5392  13.6809  16.1211  18.0281

          k = 0.1250 0.5052 0.4364 (   678 PWs)   bands (ev):

    -0.3454   1.6501   3.8935   4.9668   6.9904  13.7677  14.7869  19.8646

          k = 0.0000 0.2887-0.2909 (   680 PWs)   bands (ev):

    -2.9073   2.3497   4.7869   6.7418  11.5392  13.6809  16.1211  18.0281

          k = 0.1250 0.5052-0.1455 (   674 PWs)   bands (ev):

    -1.1540   0.9720   4.6047   6.5055   9.5495  13.5675  14.6325  16.1078

          k = 0.0000-0.5774 0.0000 (   676 PWs)   bands (ev):

    -0.8559  -0.1616   5.5309   7.8975  10.7860  11.6276  13.0221  14.8253

          k = 0.1250-0.3608 0.1455 (   678 PWs)   bands (ev):

    -2.6811   3.2634   5.0257   5.2573  11.6306  13.0288  14.3950  16.9027

          k = 0.0000-0.5774 0.2909 (   670 PWs)   bands (ev):

    -0.1967   0.4723   4.9116   5.7426   7.1851  13.0425  17.1668  18.1844

          k = 0.1250-0.3608 0.4364 (   684 PWs)   bands (ev):

    -1.7752   2.3358   3.8319   5.5062   9.3326  14.6279  15.0106  18.3460

          k = 0.0000-0.5774-0.2909 (   670 PWs)   bands (ev):

    -0.1967   0.4723   4.9116   5.7426   7.1851  13.0425  17.1668  18.1844

          k = 0.1250-0.3608-0.1455 (   678 PWs)   bands (ev):

    -2.6811   3.2634   5.0257   5.2573  11.6306  13.0288  14.3950  16.9027

          k = 0.0000-0.2887 0.0000 (   681 PWs)   bands (ev):

    -3.6967   4.3221   5.7684   6.5101  10.2984  13.1165  14.5810  17.0309

          k = 0.1250-0.0722 0.1455 (   687 PWs)   bands (ev):

    -4.2788   3.4916   6.9279   7.5863  11.5857  13.9801  15.2971  15.4941

          k = 0.0000-0.2887 0.2909 (   680 PWs)   bands (ev):

    -2.9073   2.3497   4.7869   6.7418  11.5392  13.6809  16.1211  18.0281

          k = 0.1250-0.0722 0.4364 (   682 PWs)   bands (ev):

    -3.2517   0.5286   7.2987   7.8539  13.9292  14.3706  15.5756  17.8725

          k = 0.0000-0.2887-0.2909 (   680 PWs)   bands (ev):

    -2.9073   2.3497   4.7869   6.7418  11.5392  13.6809  16.1211  18.0281

          k = 0.1250-0.0722-0.1455 (   687 PWs)   bands (ev):

    -4.2788   3.4916   6.9279   7.5863  11.5857  13.9801  15.2971  15.4941

          k = 0.2500 0.1443 0.0000 (   681 PWs)   bands (ev):

    -3.6967   4.3221   5.7684   6.5101  10.2984  13.1165  14.5810  17.0309

          k = 0.3750 0.3608 0.1455 (   674 PWs)   bands (ev):

    -1.1540   0.9720   4.6047   6.5055   9.5495  13.5675  14.6325  16.1078

          k = 0.2500 0.1443 0.2909 (   680 PWs)   bands (ev):

    -2.9073   2.3497   4.7869   6.7418  11.5392  13.6809  16.1211  18.0281

          k = 0.3750 0.3608 0.4364 (   678 PWs)   bands (ev):

    -0.3454   1.6501   3.8935   4.9668   6.9904  13.7677  14.7869  19.8646

          k = 0.2500 0.1443-0.2909 (   680 PWs)   bands (ev):

    -2.9073   2.3497   4.7869   6.7418  11.5392  13.6809  16.1211  18.0281

          k = 0.3750 0.3608-0.1455 (   674 PWs)   bands (ev):

    -1.1540   0.9720   4.6047   6.5055   9.5495  13.5675  14.6325  16.1078

          k = 0.2500 0.4330 0.0000 (   673 PWs)   bands (ev):

    -1.5955   1.9992   3.1104   7.7211  11.4346  12.3899  14.7394  16.0952

          k = 0.3750 0.6495 0.1455 (   675 PWs)   bands (ev):

     0.0469   0.6595   2.6610   7.5260   8.7900  14.3040  15.3094  15.5921

          k = 0.2500 0.4330 0.2909 (   678 PWs)   bands (ev):

    -0.9037   2.5530   3.5246   4.5533   8.3547  13.1327  16.8169  17.8007

          k = 0.3750 0.6495 0.4364 (   678 PWs)   bands (ev):

     0.7975   1.3487   3.1679   5.0033   6.2590  11.6945  17.5170  20.5975

          k = 0.2500 0.4330-0.2909 (   678 PWs)   bands (ev):

    -0.9037   2.5530   3.5246   4.5533   8.3547  13.1327  16.8169  17.8007

          k = 0.3750 0.6495-0.1455 (   675 PWs)   bands (ev):

     0.0469   0.6595   2.6610   7.5260   8.7900  14.3040  15.3094  15.5921

          k = 0.2500-0.4330 0.0000 (   673 PWs)   bands (ev):

    -1.5955   1.9992   3.1104   7.7211  11.4346  12.3899  14.7394  16.0952

          k = 0.3750-0.2165 0.1455 (   681 PWs)   bands (ev):

    -2.1607   1.9432   5.6074   5.8554  10.5142  12.4970  13.9548  17.4168

          k = 0.2500-0.4330 0.2909 (   678 PWs)   bands (ev):

    -0.9037   2.5530   3.5246   4.5533   8.3547  13.1327  16.8169  17.8007

          k = 0.3750-0.2165 0.4364 (   674 PWs)   bands (ev):

    -1.2898   2.5768   2.8878   6.0801   8.1152  13.6288  16.8835  16.9160

          k = 0.2500-0.4330-0.2909 (   678 PWs)   bands (ev):

    -0.9037   2.5530   3.5246   4.5533   8.3547  13.1327  16.8169  17.8007

          k = 0.3750-0.2165-0.1455 (   681 PWs)   bands (ev):

    -2.1607   1.9432   5.6074   5.8554  10.5142  12.4970  13.9548  17.4168

          k = 0.2500-0.1443 0.0000 (   681 PWs)   bands (ev):

    -3.6967   4.3221   5.7684   6.5101  10.2984  13.1165  14.5810  17.0309

          k = 0.3750 0.0722 0.1455 (   678 PWs)   bands (ev):

    -2.6811   3.2634   5.0257   5.2573  11.6306  13.0288  14.3950  16.9027

          k = 0.2500-0.1443 0.2909 (   680 PWs)   bands (ev):

    -2.9073   2.3497   4.7869   6.7418  11.5392  13.6809  16.1211  18.0281

          k = 0.3750 0.0722 0.4364 (   684 PWs)   bands (ev):

    -1.7752   2.3358   3.8319   5.5062   9.3326  14.6279  15.0106  18.3460

          k = 0.2500-0.1443-0.2909 (   680 PWs)   bands (ev):

    -2.9073   2.3497   4.7869   6.7418  11.5392  13.6809  16.1211  18.0281

          k = 0.3750 0.0722-0.1455 (   678 PWs)   bands (ev):

    -2.6811   3.2634   5.0257   5.2573  11.6306  13.0288  14.3950  16.9027

          k =-0.5000-0.2887 0.0000 (   676 PWs)   bands (ev):

    -0.8559  -0.1616   5.5309   7.8975  10.7860  11.6276  13.0221  14.8253

          k =-0.3750-0.0722 0.1455 (   678 PWs)   bands (ev):

    -2.6811   3.2634   5.0257   5.2573  11.6306  13.0288  14.3950  16.9027

          k =-0.5000-0.2887 0.2909 (   670 PWs)   bands (ev):

    -0.1967   0.4723   4.9116   5.7426   7.1851  13.0425  17.1668  18.1844

          k =-0.3750-0.0722 0.4364 (   684 PWs)   bands (ev):

    -1.7752   2.3358   3.8319   5.5062   9.3326  14.6279  15.0106  18.3460

          k =-0.5000-0.2887-0.2909 (   670 PWs)   bands (ev):

    -0.1967   0.4723   4.9116   5.7426   7.1851  13.0425  17.1668  18.1844

          k =-0.3750-0.0722-0.1455 (   678 PWs)   bands (ev):

    -2.6811   3.2634   5.0257   5.2573  11.6306  13.0288  14.3950  16.9027

          k =-0.5000-0.0000 0.0000 (   673 PWs)   bands (ev):

    -1.5955   1.9992   3.1104   7.7211  11.4346  12.3899  14.7394  16.0952

          k =-0.3750 0.2165 0.1455 (   681 PWs)   bands (ev):

    -2.1607   1.9432   5.6074   5.8554  10.5142  12.4970  13.9548  17.4168

          k =-0.5000-0.0000 0.2909 (   678 PWs)   bands (ev):

    -0.9037   2.5530   3.5246   4.5533   8.3547  13.1327  16.8169  17.8007

          k =-0.3750 0.2165 0.4364 (   674 PWs)   bands (ev):

    -1.2898   2.5768   2.8878   6.0801   8.1152  13.6288  16.8835  16.9160

          k =-0.5000-0.0000-0.2909 (   678 PWs)   bands (ev):

    -0.9037   2.5530   3.5246   4.5533   8.3547  13.1327  16.8169  17.8007

          k =-0.3750 0.2165-0.1455 (   681 PWs)   bands (ev):

    -2.1607   1.9432   5.6074   5.8554  10.5142  12.4970  13.9548  17.4168

          k =-0.5000-0.8660 0.0000 (   676 PWs)   bands (ev):

    -0.8559  -0.1616   5.5309   7.8975  10.7860  11.6276  13.0221  14.8253

          k =-0.3750-0.6495 0.1455 (   675 PWs)   bands (ev):

     0.0469   0.6595   2.6610   7.5260   8.7900  14.3040  15.3094  15.5921

          k =-0.5000-0.8660 0.2909 (   670 PWs)   bands (ev):

    -0.1967   0.4723   4.9116   5.7426   7.1851  13.0425  17.1668  18.1844

          k =-0.3750-0.6495 0.4364 (   678 PWs)   bands (ev):

     0.7975   1.3487   3.1679   5.0033   6.2590  11.6945  17.5170  20.5975

          k =-0.5000-0.8660-0.2909 (   670 PWs)   bands (ev):

    -0.1967   0.4723   4.9116   5.7426   7.1851  13.0425  17.1668  18.1844

          k =-0.3750-0.6495-0.1455 (   675 PWs)   bands (ev):

     0.0469   0.6595   2.6610   7.5260   8.7900  14.3040  15.3094  15.5921

          k =-0.5000-0.5774 0.0000 (   673 PWs)   bands (ev):

    -1.5955   1.9992   3.1104   7.7211  11.4346  12.3899  14.7394  16.0952

          k =-0.3750-0.3608 0.1455 (   674 PWs)   bands (ev):

    -1.1540   0.9720   4.6047   6.5055   9.5495  13.5675  14.6325  16.1078

          k =-0.5000-0.5774 0.2909 (   678 PWs)   bands (ev):

    -0.9037   2.5530   3.5246   4.5533   8.3547  13.1327  16.8169  17.8007

          k =-0.3750-0.3608 0.4364 (   678 PWs)   bands (ev):

    -0.3454   1.6501   3.8935   4.9668   6.9904  13.7677  14.7869  19.8646

          k =-0.5000-0.5774-0.2909 (   678 PWs)   bands (ev):

    -0.9037   2.5530   3.5246   4.5533   8.3547  13.1327  16.8169  17.8007

          k =-0.3750-0.3608-0.1455 (   674 PWs)   bands (ev):

    -1.1540   0.9720   4.6047   6.5055   9.5495  13.5675  14.6325  16.1078

          k =-0.2500-0.1443 0.0000 (   681 PWs)   bands (ev):

    -3.6967   4.3221   5.7684   6.5101  10.2984  13.1165  14.5810  17.0309

          k =-0.1250 0.0722 0.1455 (   687 PWs)   bands (ev):

    -4.2788   3.4916   6.9279   7.5863  11.5857  13.9801  15.2971  15.4941

          k =-0.2500-0.1443 0.2909 (   680 PWs)   bands (ev):

    -2.9073   2.3497   4.7869   6.7418  11.5392  13.6809  16.1211  18.0281

          k =-0.1250 0.0722 0.4364 (   682 PWs)   bands (ev):

    -3.2517   0.5286   7.2987   7.8539  13.9292  14.3706  15.5756  17.8725

          k =-0.2500-0.1443-0.2909 (   680 PWs)   bands (ev):

    -2.9073   2.3497   4.7869   6.7418  11.5392  13.6809  16.1211  18.0281

          k =-0.1250 0.0722-0.1455 (   687 PWs)   bands (ev):

    -4.2788   3.4916   6.9279   7.5863  11.5857  13.9801  15.2971  15.4941

          k =-0.2500 0.1443 0.0000 (   681 PWs)   bands (ev):

    -3.6967   4.3221   5.7684   6.5101  10.2984  13.1165  14.5810  17.0309

          k =-0.1250 0.3608 0.1455 (   678 PWs)   bands (ev):

    -2.6811   3.2634   5.0257   5.2573  11.6306  13.0288  14.3950  16.9027

          k =-0.2500 0.1443 0.2909 (   680 PWs)   bands (ev):

    -2.9073   2.3497   4.7869   6.7418  11.5392  13.6809  16.1211  18.0281

          k =-0.1250 0.3608 0.4364 (   684 PWs)   bands (ev):

    -1.7752   2.3358   3.8319   5.5062   9.3326  14.6279  15.0106  18.3460

          k =-0.2500 0.1443-0.2909 (   680 PWs)   bands (ev):

    -2.9073   2.3497   4.7869   6.7418  11.5392  13.6809  16.1211  18.0281

          k =-0.1250 0.3608-0.1455 (   678 PWs)   bands (ev):

    -2.6811   3.2634   5.0257   5.2573  11.6306  13.0288  14.3950  16.9027

          k =-0.2500-0.7217 0.0000 (   673 PWs)   bands (ev):

    -1.5955   1.9992   3.1104   7.7211  11.4346  12.3899  14.7394  16.0952

          k =-0.1250-0.5052 0.1455 (   674 PWs)   bands (ev):

    -1.1540   0.9720   4.6047   6.5055   9.5495  13.5675  14.6325  16.1078

          k =-0.2500-0.7217 0.2909 (   678 PWs)   bands (ev):

    -0.9037   2.5530   3.5246   4.5533   8.3547  13.1327  16.8169  17.8007

          k =-0.1250-0.5052 0.4364 (   678 PWs)   bands (ev):

    -0.3454   1.6501   3.8935   4.9668   6.9904  13.7677  14.7869  19.8646

          k =-0.2500-0.7217-0.2909 (   678 PWs)   bands (ev):

    -0.9037   2.5530   3.5246   4.5533   8.3547  13.1327  16.8169  17.8007

          k =-0.1250-0.5052-0.1455 (   674 PWs)   bands (ev):

    -1.1540   0.9720   4.6047   6.5055   9.5495  13.5675  14.6325  16.1078

          k =-0.2500-0.4330 0.0000 (   673 PWs)   bands (ev):

    -1.5955   1.9992   3.1104   7.7211  11.4346  12.3899  14.7394  16.0952

          k =-0.1250-0.2165 0.1455 (   679 PWs)   bands (ev):

    -3.7408   4.0413   5.4799   6.3476  12.0822  13.8398  14.5571  15.8796

          k =-0.2500-0.4330 0.2909 (   678 PWs)   bands (ev):

    -0.9037   2.5530   3.5246   4.5533   8.3547  13.1327  16.8169  17.8007

          k =-0.1250-0.2165 0.4364 (   682 PWs)   bands (ev):

    -2.7568   1.1457   5.9356   6.6474  11.8775  14.9549  16.3499  16.4235

          k =-0.2500-0.4330-0.2909 (   678 PWs)   bands (ev):

    -0.9037   2.5530   3.5246   4.5533   8.3547  13.1327  16.8169  17.8007

          k =-0.1250-0.2165-0.1455 (   679 PWs)   bands (ev):

    -3.7408   4.0413   5.4799   6.3476  12.0822  13.8398  14.5571  15.8796

     the Fermi energy is     7.7432 ev

     Writing output data file ./_ph0/pwscf.q_1/pwscf.save/
 
     [dfpt_tetra]  Dos(E_F)[/Ry] :   0.1053843E+02

     Electron-phonon matrix                                                     

     bravais-lattice index     =            0
     lattice parameter (alat)  =       5.8042  a.u.
     unit-cell volume          =     194.0373 (a.u.)^3
     number of atoms/cell      =            3
     number of atomic types    =            2
     kinetic-energy cut-off    =      35.0000  Ry
     charge density cut-off    =     280.0000  Ry
     convergence threshold     =      1.0E-12
     beta                      =       0.7000
     number of iterations used =            4
     Exchange-correlation= PBE
                           (   1   4   3   4   0   0   0)


     celldm(1)=    5.80420  celldm(2)=    0.00000  celldm(3)=    0.00000
     celldm(4)=    0.00000  celldm(5)=    0.00000  celldm(6)=    0.00000

     crystal axes: (cart. coord. in units of alat)
               a(1) = (  1.0000  0.0000  0.0000 )  
               a(2) = ( -0.5000  0.8660  0.0000 )  
               a(3) = (  0.0000  0.0000  1.1458 )  

     reciprocal axes: (cart. coord. in units 2 pi/alat)
               b(1) = (  1.0000  0.5774 -0.0000 )  
               b(2) = (  0.0000  1.1547  0.0000 )  
               b(3) = (  0.0000 -0.0000  0.8727 )  


     Atoms inside the unit cell: 

     Cartesian axes

     site n.  atom      mass           positions (alat units)
        1     Mg  24.3050   tau(    1) = (    0.00000    0.00000    0.00000  )
        2     B   10.8110   tau(    2) = (   -0.00000    0.57735    0.57292  )
        3     B   10.8110   tau(    3) = (    0.50000    0.28868    0.57292  )

     Computing dynamical matrix for 
                    q = (   0.1250000   0.2165064   0.1454529 )

      2 Sym.Ops. (no q -> -q+G )


     G cutoff =  238.9372  (  15395 G-vectors)     FFT grid: ( 32, 32, 36)
     G cutoff =  119.4686  (   5449 G-vectors)  smooth grid: ( 24, 24, 25)
     number of k points=    96

     PseudoPot. # 1 for B  read from file:
     ../../../pseudo/B.pbe-n-kjpaw_psl.0.1.upf
     MD5 check sum: b4345a612e0782cca08559f453f3313f
     Pseudo is Projector augmented-wave + core cor, Zval =  3.0
     Generated using "atomic" code by A. Dal Corso  v.5.0.99 svn rev. 10869
     Shape of augmentation charge: BESSEL
     Using radial grid of 1059 points,  4 beta functions with: 
                l(1) =   0
                l(2) =   0
                l(3) =   1
                l(4) =   1
     Q(r) pseudized with 0 coefficients 


     PseudoPot. # 2 for Mg read from file:
     ../../../pseudo/Mg.pbe-n-kjpaw_psl.0.3.0.upf
     MD5 check sum: 9eaefceb6cf3903db1b93e4e5c6adf9a
     Pseudo is Projector augmented-wave + core cor, Zval =  2.0
     Generated using "atomic" code by A. Dal Corso  v.5.0.99 svn rev. 10869
     Shape of augmentation charge: PSQ
     Using radial grid of 1129 points,  4 beta functions with: 
                l(1) =   0
                l(2) =   0
                l(3) =   1
                l(4) =   1
     Q(r) pseudized with 0 coefficients 



     Atomic displacements:
     There are    9 irreducible representations

     Representation     1      1 modes -  To be done

     Representation     2      1 modes -  To be done

     Representation     3      1 modes -  To be done

     Representation     4      1 modes -  To be done

     Representation     5      1 modes -  To be done

     Representation     6      1 modes -  To be done

     Representation     7      1 modes -  To be done

     Representation     8      1 modes -  To be done

     Representation     9      1 modes -  To be done


[macloud1:940865] 23 more processes have sent help message help-common-ofi.txt / package_rank failed
[macloud1:940865] Set MCA parameter "orte_base_help_aggregate" to 0 to see all help / error messages
[macloud1:940865] 23 more processes have sent help message help-mpi-btl-openib.txt / error in device init
     PHONON       :      4.47s CPU      4.85s WALL

     Reading dVscf from file dv
     Reading dynamics matrix from file matdyn1

     Diagonalizing the dynamical matrix

     q = (    0.125000000   0.216506351   0.145452854 ) 

 **************************************************************************
     freq (    1) =       5.978315 [THz] =     199.415120 [cm-1]
     freq (    2) =       6.149582 [THz] =     205.127979 [cm-1]
     freq (    3) =       8.043169 [THz] =     268.291246 [cm-1]
     freq (    4) =      11.718825 [THz] =     390.897927 [cm-1]
     freq (    5) =      12.105225 [THz] =     403.786845 [cm-1]
     freq (    6) =      13.860626 [THz] =     462.340729 [cm-1]
     freq (    7) =      19.153973 [THz] =     638.907754 [cm-1]
     freq (    8) =      19.448988 [THz] =     648.748405 [cm-1]
     freq (    9) =      20.401973 [THz] =     680.536575 [cm-1]
 **************************************************************************
 [elph_scdft]  write elph.dat with symmetries (only on Fermi surfaces)
 [elph_scdft]   Lowest band which contains FS :            3
 [elph_scdft]  Highest band which contains FS :            5
 [elph_scdft]    # of bands which contains FS :            3

     Calculation of q =    0.1250000   0.2165064  -0.4363586
     Message from routine kpoint_grid:
     ATTENTION: skip check of k-points equivalence
     [opt_tetra]  Optimized tetrahedron method is used.

     G-vector sticks info
     --------------------
     sticks:   dense  smooth     PW     G-vecs:    dense   smooth      PW
     Sum         649     313    121                15395     5449    1155

     Using Slab Decomposition


     Title: 
     Electron-phonon matrix                                                     


     bravais-lattice index     =            0
     lattice parameter (alat)  =       5.8042  a.u.
     unit-cell volume          =     194.0373 (a.u.)^3
     number of atoms/cell      =            3
     number of atomic types    =            2
     number of electrons       =         8.00
     number of Kohn-Sham states=            8
     kinetic-energy cutoff     =      35.0000  Ry
     charge density cutoff     =     280.0000  Ry
     Exchange-correlation= PBE
                           (   1   4   3   4   0   0   0)

     celldm(1)=   5.804205  celldm(2)=   0.000000  celldm(3)=   0.000000
     celldm(4)=   0.000000  celldm(5)=   0.000000  celldm(6)=   0.000000

     crystal axes: (cart. coord. in units of alat)
               a(1) = (   1.000000   0.000000   0.000000 )  
               a(2) = (  -0.500000   0.866025   0.000000 )  
               a(3) = (   0.000000   0.000000   1.145847 )  

     reciprocal axes: (cart. coord. in units 2 pi/alat)
               b(1) = (  1.000000  0.577350 -0.000000 )  
               b(2) = (  0.000000  1.154701  0.000000 )  
               b(3) = (  0.000000 -0.000000  0.872717 )  


     PseudoPot. # 1 for B  read from file:
     ../../../pseudo/B.pbe-n-kjpaw_psl.0.1.upf
     MD5 check sum: b4345a612e0782cca08559f453f3313f
     Pseudo is Projector augmented-wave + core cor, Zval =  3.0
     Generated using "atomic" code by A. Dal Corso  v.5.0.99 svn rev. 10869
     Shape of augmentation charge: BESSEL
     Using radial grid of 1059 points,  4 beta functions with: 
                l(1) =   0
                l(2) =   0
                l(3) =   1
                l(4) =   1
     Q(r) pseudized with 0 coefficients 


     PseudoPot. # 2 for Mg read from file:
     ../../../pseudo/Mg.pbe-n-kjpaw_psl.0.3.0.upf
     MD5 check sum: 9eaefceb6cf3903db1b93e4e5c6adf9a
     Pseudo is Projector augmented-wave + core cor, Zval =  2.0
     Generated using "atomic" code by A. Dal Corso  v.5.0.99 svn rev. 10869
     Shape of augmentation charge: PSQ
     Using radial grid of 1129 points,  4 beta functions with: 
                l(1) =   0
                l(2) =   0
                l(3) =   1
                l(4) =   1
     Q(r) pseudized with 0 coefficients 


     atomic species   valence    mass     pseudopotential
        B              3.00    10.81100     B ( 1.00)
        Mg             2.00    24.30500     Mg( 1.00)

     24 Sym. Ops., with inversion, found



   Cartesian axes

     site n.     atom                  positions (alat units)
         1           Mg  tau(   1) = (   0.0000000   0.0000000   0.0000000  )
         2           B   tau(   2) = (  -0.0000000   0.5773503   0.5729233  )
         3           B   tau(   3) = (   0.5000000   0.2886751   0.5729233  )

     number of k points=    96 (tetrahedron method)
                       cart. coord. in units 2pi/alat
        k(    1) = (   0.0000000   0.0000000   0.0000000), wk =   0.0416667
        k(    2) = (   0.1250000   0.2165064  -0.4363586), wk =   0.0000000
        k(    3) = (   0.0000000   0.0000000   0.2909057), wk =   0.0416667
        k(    4) = (   0.1250000   0.2165064  -0.1454529), wk =   0.0000000
        k(    5) = (   0.0000000   0.0000000  -0.2909057), wk =   0.0416667
        k(    6) = (   0.1250000   0.2165064  -0.7272643), wk =   0.0000000
        k(    7) = (   0.0000000   0.2886751   0.0000000), wk =   0.0416667
        k(    8) = (   0.1250000   0.5051815  -0.4363586), wk =   0.0000000
        k(    9) = (   0.0000000   0.2886751   0.2909057), wk =   0.0416667
        k(   10) = (   0.1250000   0.5051815  -0.1454529), wk =   0.0000000
        k(   11) = (   0.0000000   0.2886751  -0.2909057), wk =   0.0416667
        k(   12) = (   0.1250000   0.5051815  -0.7272643), wk =   0.0000000
        k(   13) = (   0.0000000  -0.5773503   0.0000000), wk =   0.0416667
        k(   14) = (   0.1250000  -0.3608439  -0.4363586), wk =   0.0000000
        k(   15) = (   0.0000000  -0.5773503   0.2909057), wk =   0.0416667
        k(   16) = (   0.1250000  -0.3608439  -0.1454529), wk =   0.0000000
        k(   17) = (   0.0000000  -0.5773503  -0.2909057), wk =   0.0416667
        k(   18) = (   0.1250000  -0.3608439  -0.7272643), wk =   0.0000000
        k(   19) = (   0.0000000  -0.2886751   0.0000000), wk =   0.0416667
        k(   20) = (   0.1250000  -0.0721688  -0.4363586), wk =   0.0000000
        k(   21) = (   0.0000000  -0.2886751   0.2909057), wk =   0.0416667
        k(   22) = (   0.1250000  -0.0721688  -0.1454529), wk =   0.0000000
        k(   23) = (   0.0000000  -0.2886751  -0.2909057), wk =   0.0416667
        k(   24) = (   0.1250000  -0.0721688  -0.7272643), wk =   0.0000000
        k(   25) = (   0.2500000   0.1443376   0.0000000), wk =   0.0416667
        k(   26) = (   0.3750000   0.3608439  -0.4363586), wk =   0.0000000
        k(   27) = (   0.2500000   0.1443376   0.2909057), wk =   0.0416667
        k(   28) = (   0.3750000   0.3608439  -0.1454529), wk =   0.0000000
        k(   29) = (   0.2500000   0.1443376  -0.2909057), wk =   0.0416667
        k(   30) = (   0.3750000   0.3608439  -0.7272643), wk =   0.0000000
        k(   31) = (   0.2500000   0.4330127   0.0000000), wk =   0.0416667
        k(   32) = (   0.3750000   0.6495191  -0.4363586), wk =   0.0000000
        k(   33) = (   0.2500000   0.4330127   0.2909057), wk =   0.0416667
        k(   34) = (   0.3750000   0.6495191  -0.1454529), wk =   0.0000000
        k(   35) = (   0.2500000   0.4330127  -0.2909057), wk =   0.0416667
        k(   36) = (   0.3750000   0.6495191  -0.7272643), wk =   0.0000000
        k(   37) = (   0.2500000  -0.4330127   0.0000000), wk =   0.0416667
        k(   38) = (   0.3750000  -0.2165064  -0.4363586), wk =   0.0000000
        k(   39) = (   0.2500000  -0.4330127   0.2909057), wk =   0.0416667
        k(   40) = (   0.3750000  -0.2165064  -0.1454529), wk =   0.0000000
        k(   41) = (   0.2500000  -0.4330127  -0.2909057), wk =   0.0416667
        k(   42) = (   0.3750000  -0.2165064  -0.7272643), wk =   0.0000000
        k(   43) = (   0.2500000  -0.1443376   0.0000000), wk =   0.0416667
        k(   44) = (   0.3750000   0.0721688  -0.4363586), wk =   0.0000000
        k(   45) = (   0.2500000  -0.1443376   0.2909057), wk =   0.0416667
        k(   46) = (   0.3750000   0.0721688  -0.1454529), wk =   0.0000000
        k(   47) = (   0.2500000  -0.1443376  -0.2909057), wk =   0.0416667
        k(   48) = (   0.3750000   0.0721688  -0.7272643), wk =   0.0000000
        k(   49) = (  -0.5000000  -0.2886751   0.0000000), wk =   0.0416667
        k(   50) = (  -0.3750000  -0.0721688  -0.4363586), wk =   0.0000000
        k(   51) = (  -0.5000000  -0.2886751   0.2909057), wk =   0.0416667
        k(   52) = (  -0.3750000  -0.0721688  -0.1454529), wk =   0.0000000
        k(   53) = (  -0.5000000  -0.2886751  -0.2909057), wk =   0.0416667
        k(   54) = (  -0.3750000  -0.0721688  -0.7272643), wk =   0.0000000
        k(   55) = (  -0.5000000  -0.0000000   0.0000000), wk =   0.0416667
        k(   56) = (  -0.3750000   0.2165064  -0.4363586), wk =   0.0000000
        k(   57) = (  -0.5000000  -0.0000000   0.2909057), wk =   0.0416667
        k(   58) = (  -0.3750000   0.2165064  -0.1454529), wk =   0.0000000
        k(   59) = (  -0.5000000  -0.0000000  -0.2909057), wk =   0.0416667
        k(   60) = (  -0.3750000   0.2165064  -0.7272643), wk =   0.0000000
        k(   61) = (  -0.5000000  -0.8660254   0.0000000), wk =   0.0416667
        k(   62) = (  -0.3750000  -0.6495191  -0.4363586), wk =   0.0000000
        k(   63) = (  -0.5000000  -0.8660254   0.2909057), wk =   0.0416667
        k(   64) = (  -0.3750000  -0.6495191  -0.1454529), wk =   0.0000000
        k(   65) = (  -0.5000000  -0.8660254  -0.2909057), wk =   0.0416667
        k(   66) = (  -0.3750000  -0.6495191  -0.7272643), wk =   0.0000000
        k(   67) = (  -0.5000000  -0.5773503   0.0000000), wk =   0.0416667
        k(   68) = (  -0.3750000  -0.3608439  -0.4363586), wk =   0.0000000
        k(   69) = (  -0.5000000  -0.5773503   0.2909057), wk =   0.0416667
        k(   70) = (  -0.3750000  -0.3608439  -0.1454529), wk =   0.0000000
        k(   71) = (  -0.5000000  -0.5773503  -0.2909057), wk =   0.0416667
        k(   72) = (  -0.3750000  -0.3608439  -0.7272643), wk =   0.0000000
        k(   73) = (  -0.2500000  -0.1443376   0.0000000), wk =   0.0416667
        k(   74) = (  -0.1250000   0.0721688  -0.4363586), wk =   0.0000000
        k(   75) = (  -0.2500000  -0.1443376   0.2909057), wk =   0.0416667
        k(   76) = (  -0.1250000   0.0721688  -0.1454529), wk =   0.0000000
        k(   77) = (  -0.2500000  -0.1443376  -0.2909057), wk =   0.0416667
        k(   78) = (  -0.1250000   0.0721688  -0.7272643), wk =   0.0000000
        k(   79) = (  -0.2500000   0.1443376   0.0000000), wk =   0.0416667
        k(   80) = (  -0.1250000   0.3608439  -0.4363586), wk =   0.0000000
        k(   81) = (  -0.2500000   0.1443376   0.2909057), wk =   0.0416667
        k(   82) = (  -0.1250000   0.3608439  -0.1454529), wk =   0.0000000
        k(   83) = (  -0.2500000   0.1443376  -0.2909057), wk =   0.0416667
        k(   84) = (  -0.1250000   0.3608439  -0.7272643), wk =   0.0000000
        k(   85) = (  -0.2500000  -0.7216878   0.0000000), wk =   0.0416667
        k(   86) = (  -0.1250000  -0.5051815  -0.4363586), wk =   0.0000000
        k(   87) = (  -0.2500000  -0.7216878   0.2909057), wk =   0.0416667
        k(   88) = (  -0.1250000  -0.5051815  -0.1454529), wk =   0.0000000
        k(   89) = (  -0.2500000  -0.7216878  -0.2909057), wk =   0.0416667
        k(   90) = (  -0.1250000  -0.5051815  -0.7272643), wk =   0.0000000
        k(   91) = (  -0.2500000  -0.4330127   0.0000000), wk =   0.0416667
        k(   92) = (  -0.1250000  -0.2165064  -0.4363586), wk =   0.0000000
        k(   93) = (  -0.2500000  -0.4330127   0.2909057), wk =   0.0416667
        k(   94) = (  -0.1250000  -0.2165064  -0.1454529), wk =   0.0000000
        k(   95) = (  -0.2500000  -0.4330127  -0.2909057), wk =   0.0416667
        k(   96) = (  -0.1250000  -0.2165064  -0.7272643), wk =   0.0000000

     Dense  grid:    15395 G-vectors     FFT dimensions: (  32,  32,  36)

     Smooth grid:     5449 G-vectors     FFT dimensions: (  24,  24,  25)

     Estimated max dynamical RAM per process >       7.23 MB

     Estimated total dynamical RAM >     173.52 MB

     Check: negative core charge=   -0.000006

     The potential is recalculated from file :
     ./_ph0/pwscf.q_2/pwscf.save/charge-density

     Starting wfcs are   12 atomic wfcs
     Checking if some PAW data can be deallocated... 

     Band Structure Calculation
     Davidson diagonalization with overlap

     ethr =  1.25E-10,  avg # of iterations = 20.6

     total cpu time spent up to now is        2.5 secs

     End of band structure calculation

          k = 0.0000 0.0000 0.0000 (   709 PWs)   bands (ev):

    -4.7856   4.7169   8.0859   8.0859   9.3182  14.0810  14.0810  15.9413

          k = 0.1250 0.2165-0.4364 (   682 PWs)   bands (ev):

    -2.7568   1.1457   5.9356   6.6474  11.8775  14.9549  16.3499  16.4235

          k = 0.0000 0.0000 0.2909 (   690 PWs)   bands (ev):

    -3.9413   1.1725   8.3605   8.3605  14.3197  14.3197  15.0532  15.8003

          k = 0.1250 0.2165-0.1455 (   679 PWs)   bands (ev):

    -3.7408   4.0413   5.4799   6.3476  12.0822  13.8398  14.5571  15.8796

          k = 0.0000 0.0000-0.2909 (   690 PWs)   bands (ev):

    -3.9413   1.1725   8.3605   8.3605  14.3197  14.3197  15.0532  15.8003

          k = 0.1250 0.2165-0.7273 (   679 PWs)   bands (ev):

    -3.7408   4.0413   5.4799   6.3476  12.0822  13.8398  14.5571  15.8796

          k = 0.0000 0.2887 0.0000 (   681 PWs)   bands (ev):

    -3.6967   4.3221   5.7684   6.5101  10.2984  13.1165  14.5810  17.0309

          k = 0.1250 0.5052-0.4364 (   678 PWs)   bands (ev):

    -0.3454   1.6501   3.8935   4.9668   6.9904  13.7677  14.7869  19.8646

          k = 0.0000 0.2887 0.2909 (   680 PWs)   bands (ev):

    -2.9073   2.3497   4.7869   6.7418  11.5392  13.6809  16.1211  18.0281

          k = 0.1250 0.5052-0.1455 (   674 PWs)   bands (ev):

    -1.1540   0.9720   4.6047   6.5055   9.5495  13.5675  14.6325  16.1078

          k = 0.0000 0.2887-0.2909 (   680 PWs)   bands (ev):

    -2.9073   2.3497   4.7869   6.7418  11.5392  13.6809  16.1211  18.0281

          k = 0.1250 0.5052-0.7273 (   674 PWs)   bands (ev):

    -1.1540   0.9720   4.6047   6.5055   9.5495  13.5675  14.6325  16.1078

          k = 0.0000-0.5774 0.0000 (   676 PWs)   bands (ev):

    -0.8559  -0.1616   5.5309   7.8975  10.7860  11.6276  13.0221  14.8253

          k = 0.1250-0.3608-0.4364 (   684 PWs)   bands (ev):

    -1.7752   2.3358   3.8319   5.5062   9.3326  14.6279  15.0106  18.3460

          k = 0.0000-0.5774 0.2909 (   670 PWs)   bands (ev):

    -0.1967   0.4723   4.9116   5.7426   7.1851  13.0425  17.1668  18.1844

          k = 0.1250-0.3608-0.1455 (   678 PWs)   bands (ev):

    -2.6811   3.2634   5.0257   5.2573  11.6306  13.0288  14.3950  16.9027

          k = 0.0000-0.5774-0.2909 (   670 PWs)   bands (ev):

    -0.1967   0.4723   4.9116   5.7426   7.1851  13.0425  17.1668  18.1844

          k = 0.1250-0.3608-0.7273 (   678 PWs)   bands (ev):

    -2.6811   3.2634   5.0257   5.2573  11.6306  13.0288  14.3950  16.9027

          k = 0.0000-0.2887 0.0000 (   681 PWs)   bands (ev):

    -3.6967   4.3221   5.7684   6.5101  10.2984  13.1165  14.5810  17.0309

          k = 0.1250-0.0722-0.4364 (   682 PWs)   bands (ev):

    -3.2517   0.5286   7.2987   7.8539  13.9292  14.3706  15.5756  17.8725

          k = 0.0000-0.2887 0.2909 (   680 PWs)   bands (ev):

    -2.9073   2.3497   4.7869   6.7418  11.5392  13.6809  16.1211  18.0281

          k = 0.1250-0.0722-0.1455 (   687 PWs)   bands (ev):

    -4.2788   3.4916   6.9279   7.5863  11.5857  13.9801  15.2971  15.4941

          k = 0.0000-0.2887-0.2909 (   680 PWs)   bands (ev):

    -2.9073   2.3497   4.7869   6.7418  11.5392  13.6809  16.1211  18.0281

          k = 0.1250-0.0722-0.7273 (   687 PWs)   bands (ev):

    -4.2788   3.4916   6.9279   7.5863  11.5857  13.9801  15.2971  15.4941

          k = 0.2500 0.1443 0.0000 (   681 PWs)   bands (ev):

    -3.6967   4.3221   5.7684   6.5101  10.2984  13.1165  14.5810  17.0309

          k = 0.3750 0.3608-0.4364 (   678 PWs)   bands (ev):

    -0.3454   1.6501   3.8935   4.9668   6.9904  13.7677  14.7869  19.8646

          k = 0.2500 0.1443 0.2909 (   680 PWs)   bands (ev):

    -2.9073   2.3497   4.7869   6.7418  11.5392  13.6809  16.1211  18.0281

          k = 0.3750 0.3608-0.1455 (   674 PWs)   bands (ev):

    -1.1540   0.9720   4.6047   6.5055   9.5495  13.5675  14.6325  16.1078

          k = 0.2500 0.1443-0.2909 (   680 PWs)   bands (ev):

    -2.9073   2.3497   4.7869   6.7418  11.5392  13.6809  16.1211  18.0281

          k = 0.3750 0.3608-0.7273 (   674 PWs)   bands (ev):

    -1.1540   0.9720   4.6047   6.5055   9.5495  13.5675  14.6325  16.1078

          k = 0.2500 0.4330 0.0000 (   673 PWs)   bands (ev):

    -1.5955   1.9992   3.1104   7.7211  11.4346  12.3899  14.7394  16.0952

          k = 0.3750 0.6495-0.4364 (   678 PWs)   bands (ev):

     0.7975   1.3487   3.1679   5.0033   6.2590  11.6945  17.5170  20.5975

          k = 0.2500 0.4330 0.2909 (   678 PWs)   bands (ev):

    -0.9037   2.5530   3.5246   4.5533   8.3547  13.1327  16.8169  17.8007

          k = 0.3750 0.6495-0.1455 (   675 PWs)   bands (ev):

     0.0469   0.6595   2.6610   7.5260   8.7900  14.3040  15.3094  15.5921

          k = 0.2500 0.4330-0.2909 (   678 PWs)   bands (ev):

    -0.9037   2.5530   3.5246   4.5533   8.3547  13.1327  16.8169  17.8007

          k = 0.3750 0.6495-0.7273 (   675 PWs)   bands (ev):

     0.0469   0.6595   2.6610   7.5260   8.7900  14.3040  15.3094  15.5921

          k = 0.2500-0.4330 0.0000 (   673 PWs)   bands (ev):

    -1.5955   1.9992   3.1104   7.7211  11.4346  12.3899  14.7394  16.0952

          k = 0.3750-0.2165-0.4364 (   674 PWs)   bands (ev):

    -1.2898   2.5768   2.8878   6.0801   8.1152  13.6288  16.8835  16.9160

          k = 0.2500-0.4330 0.2909 (   678 PWs)   bands (ev):

    -0.9037   2.5530   3.5246   4.5533   8.3547  13.1327  16.8169  17.8007

          k = 0.3750-0.2165-0.1455 (   681 PWs)   bands (ev):

    -2.1607   1.9432   5.6074   5.8554  10.5142  12.4970  13.9548  17.4168

          k = 0.2500-0.4330-0.2909 (   678 PWs)   bands (ev):

    -0.9037   2.5530   3.5246   4.5533   8.3547  13.1327  16.8169  17.8007

          k = 0.3750-0.2165-0.7273 (   681 PWs)   bands (ev):

    -2.1607   1.9432   5.6074   5.8554  10.5142  12.4970  13.9548  17.4168

          k = 0.2500-0.1443 0.0000 (   681 PWs)   bands (ev):

    -3.6967   4.3221   5.7684   6.5101  10.2984  13.1165  14.5810  17.0309

          k = 0.3750 0.0722-0.4364 (   684 PWs)   bands (ev):

    -1.7752   2.3358   3.8319   5.5062   9.3326  14.6279  15.0106  18.3460

          k = 0.2500-0.1443 0.2909 (   680 PWs)   bands (ev):

    -2.9073   2.3497   4.7869   6.7418  11.5392  13.6809  16.1211  18.0281

          k = 0.3750 0.0722-0.1455 (   678 PWs)   bands (ev):

    -2.6811   3.2634   5.0257   5.2573  11.6306  13.0288  14.3950  16.9027

          k = 0.2500-0.1443-0.2909 (   680 PWs)   bands (ev):

    -2.9073   2.3497   4.7869   6.7418  11.5392  13.6809  16.1211  18.0281

          k = 0.3750 0.0722-0.7273 (   678 PWs)   bands (ev):

    -2.6811   3.2634   5.0257   5.2573  11.6306  13.0288  14.3950  16.9027

          k =-0.5000-0.2887 0.0000 (   676 PWs)   bands (ev):

    -0.8559  -0.1616   5.5309   7.8975  10.7860  11.6276  13.0221  14.8253

          k =-0.3750-0.0722-0.4364 (   684 PWs)   bands (ev):

    -1.7752   2.3358   3.8319   5.5062   9.3326  14.6279  15.0106  18.3460

          k =-0.5000-0.2887 0.2909 (   670 PWs)   bands (ev):

    -0.1967   0.4723   4.9116   5.7426   7.1851  13.0425  17.1668  18.1844

          k =-0.3750-0.0722-0.1455 (   678 PWs)   bands (ev):

    -2.6811   3.2634   5.0257   5.2573  11.6306  13.0288  14.3950  16.9027

          k =-0.5000-0.2887-0.2909 (   670 PWs)   bands (ev):

    -0.1967   0.4723   4.9116   5.7426   7.1851  13.0425  17.1668  18.1844

          k =-0.3750-0.0722-0.7273 (   678 PWs)   bands (ev):

    -2.6811   3.2634   5.0257   5.2573  11.6306  13.0288  14.3950  16.9027

          k =-0.5000-0.0000 0.0000 (   673 PWs)   bands (ev):

    -1.5955   1.9992   3.1104   7.7211  11.4346  12.3899  14.7394  16.0952

          k =-0.3750 0.2165-0.4364 (   674 PWs)   bands (ev):

    -1.2898   2.5768   2.8878   6.0801   8.1152  13.6288  16.8835  16.9160

          k =-0.5000-0.0000 0.2909 (   678 PWs)   bands (ev):

    -0.9037   2.5530   3.5246   4.5533   8.3547  13.1327  16.8169  17.8007

          k =-0.3750 0.2165-0.1455 (   681 PWs)   bands (ev):

    -2.1607   1.9432   5.6074   5.8554  10.5142  12.4970  13.9548  17.4168

          k =-0.5000-0.0000-0.2909 (   678 PWs)   bands (ev):

    -0.9037   2.5530   3.5246   4.5533   8.3547  13.1327  16.8169  17.8007

          k =-0.3750 0.2165-0.7273 (   681 PWs)   bands (ev):

    -2.1607   1.9432   5.6074   5.8554  10.5142  12.4970  13.9548  17.4168

          k =-0.5000-0.8660 0.0000 (   676 PWs)   bands (ev):

    -0.8559  -0.1616   5.5309   7.8975  10.7860  11.6276  13.0221  14.8253

          k =-0.3750-0.6495-0.4364 (   678 PWs)   bands (ev):

     0.7975   1.3487   3.1679   5.0033   6.2590  11.6945  17.5170  20.5975

          k =-0.5000-0.8660 0.2909 (   670 PWs)   bands (ev):

    -0.1967   0.4723   4.9116   5.7426   7.1851  13.0425  17.1668  18.1844

          k =-0.3750-0.6495-0.1455 (   675 PWs)   bands (ev):

     0.0469   0.6595   2.6610   7.5260   8.7900  14.3040  15.3094  15.5921

          k =-0.5000-0.8660-0.2909 (   670 PWs)   bands (ev):

    -0.1967   0.4723   4.9116   5.7426   7.1851  13.0425  17.1668  18.1844

          k =-0.3750-0.6495-0.7273 (   675 PWs)   bands (ev):

     0.0469   0.6595   2.6610   7.5260   8.7900  14.3040  15.3094  15.5921

          k =-0.5000-0.5774 0.0000 (   673 PWs)   bands (ev):

    -1.5955   1.9992   3.1104   7.7211  11.4346  12.3899  14.7394  16.0952

          k =-0.3750-0.3608-0.4364 (   678 PWs)   bands (ev):

    -0.3454   1.6501   3.8935   4.9668   6.9904  13.7677  14.7869  19.8646

          k =-0.5000-0.5774 0.2909 (   678 PWs)   bands (ev):

    -0.9037   2.5530   3.5246   4.5533   8.3547  13.1327  16.8169  17.8007

          k =-0.3750-0.3608-0.1455 (   674 PWs)   bands (ev):

    -1.1540   0.9720   4.6047   6.5055   9.5495  13.5675  14.6325  16.1078

          k =-0.5000-0.5774-0.2909 (   678 PWs)   bands (ev):

    -0.9037   2.5530   3.5246   4.5533   8.3547  13.1327  16.8169  17.8007

          k =-0.3750-0.3608-0.7273 (   674 PWs)   bands (ev):

    -1.1540   0.9720   4.6047   6.5055   9.5495  13.5675  14.6325  16.1078

          k =-0.2500-0.1443 0.0000 (   681 PWs)   bands (ev):

    -3.6967   4.3221   5.7684   6.5101  10.2984  13.1165  14.5810  17.0309

          k =-0.1250 0.0722-0.4364 (   682 PWs)   bands (ev):

    -3.2517   0.5286   7.2987   7.8539  13.9292  14.3706  15.5756  17.8725

          k =-0.2500-0.1443 0.2909 (   680 PWs)   bands (ev):

    -2.9073   2.3497   4.7869   6.7418  11.5392  13.6809  16.1211  18.0281

          k =-0.1250 0.0722-0.1455 (   687 PWs)   bands (ev):

    -4.2788   3.4916   6.9279   7.5863  11.5857  13.9801  15.2971  15.4941

          k =-0.2500-0.1443-0.2909 (   680 PWs)   bands (ev):

    -2.9073   2.3497   4.7869   6.7418  11.5392  13.6809  16.1211  18.0281

          k =-0.1250 0.0722-0.7273 (   687 PWs)   bands (ev):

    -4.2788   3.4916   6.9279   7.5863  11.5857  13.9801  15.2971  15.4941

          k =-0.2500 0.1443 0.0000 (   681 PWs)   bands (ev):

    -3.6967   4.3221   5.7684   6.5101  10.2984  13.1165  14.5810  17.0309

          k =-0.1250 0.3608-0.4364 (   684 PWs)   bands (ev):

    -1.7752   2.3358   3.8319   5.5062   9.3326  14.6279  15.0106  18.3460

          k =-0.2500 0.1443 0.2909 (   680 PWs)   bands (ev):

    -2.9073   2.3497   4.7869   6.7418  11.5392  13.6809  16.1211  18.0281

          k =-0.1250 0.3608-0.1455 (   678 PWs)   bands (ev):

    -2.6811   3.2634   5.0257   5.2573  11.6306  13.0288  14.3950  16.9027

          k =-0.2500 0.1443-0.2909 (   680 PWs)   bands (ev):

    -2.9073   2.3497   4.7869   6.7418  11.5392  13.6809  16.1211  18.0281

          k =-0.1250 0.3608-0.7273 (   678 PWs)   bands (ev):

    -2.6811   3.2634   5.0257   5.2573  11.6306  13.0288  14.3950  16.9027

          k =-0.2500-0.7217 0.0000 (   673 PWs)   bands (ev):

    -1.5955   1.9992   3.1104   7.7211  11.4346  12.3899  14.7394  16.0952

          k =-0.1250-0.5052-0.4364 (   678 PWs)   bands (ev):

    -0.3454   1.6501   3.8935   4.9668   6.9904  13.7677  14.7869  19.8646

          k =-0.2500-0.7217 0.2909 (   678 PWs)   bands (ev):

    -0.9037   2.5530   3.5246   4.5533   8.3547  13.1327  16.8169  17.8007

          k =-0.1250-0.5052-0.1455 (   674 PWs)   bands (ev):

    -1.1540   0.9720   4.6047   6.5055   9.5495  13.5675  14.6325  16.1078

          k =-0.2500-0.7217-0.2909 (   678 PWs)   bands (ev):

    -0.9037   2.5530   3.5246   4.5533   8.3547  13.1327  16.8169  17.8007

          k =-0.1250-0.5052-0.7273 (   674 PWs)   bands (ev):

    -1.1540   0.9720   4.6047   6.5055   9.5495  13.5675  14.6325  16.1078

          k =-0.2500-0.4330 0.0000 (   673 PWs)   bands (ev):

    -1.5955   1.9992   3.1104   7.7211  11.4346  12.3899  14.7394  16.0952

          k =-0.1250-0.2165-0.4364 (   682 PWs)   bands (ev):

    -2.7568   1.1457   5.9356   6.6474  11.8775  14.9549  16.3499  16.4235

          k =-0.2500-0.4330 0.2909 (   678 PWs)   bands (ev):

    -0.9037   2.5530   3.5246   4.5533   8.3547  13.1327  16.8169  17.8007

          k =-0.1250-0.2165-0.1455 (   679 PWs)   bands (ev):

    -3.7408   4.0413   5.4799   6.3476  12.0822  13.8398  14.5571  15.8796

          k =-0.2500-0.4330-0.2909 (   678 PWs)   bands (ev):

    -0.9037   2.5530   3.5246   4.5533   8.3547  13.1327  16.8169  17.8007

          k =-0.1250-0.2165-0.7273 (   679 PWs)   bands (ev):

    -3.7408   4.0413   5.4799   6.3476  12.0822  13.8398  14.5571  15.8796

     the Fermi energy is     7.7432 ev

     Writing output data file ./_ph0/pwscf.q_2/pwscf.save/
 
     [dfpt_tetra]  Dos(E_F)[/Ry] :   0.1053843E+02

     Electron-phonon matrix                                                     

     bravais-lattice index     =            0
     lattice parameter (alat)  =       5.8042  a.u.
     unit-cell volume          =     194.0373 (a.u.)^3
     number of atoms/cell      =            3
     number of atomic types    =            2
     kinetic-energy cut-off    =      35.0000  Ry
     charge density cut-off    =     280.0000  Ry
     convergence threshold     =      1.0E-12
     beta                      =       0.7000
     number of iterations used =            4
     Exchange-correlation= PBE
                           (   1   4   3   4   0   0   0)


     celldm(1)=    5.80420  celldm(2)=    0.00000  celldm(3)=    0.00000
     celldm(4)=    0.00000  celldm(5)=    0.00000  celldm(6)=    0.00000

     crystal axes: (cart. coord. in units of alat)
               a(1) = (  1.0000  0.0000  0.0000 )  
               a(2) = ( -0.5000  0.8660  0.0000 )  
               a(3) = (  0.0000  0.0000  1.1458 )  

     reciprocal axes: (cart. coord. in units 2 pi/alat)
               b(1) = (  1.0000  0.5774 -0.0000 )  
               b(2) = (  0.0000  1.1547  0.0000 )  
               b(3) = (  0.0000 -0.0000  0.8727 )  


     Atoms inside the unit cell: 

     Cartesian axes

     site n.  atom      mass           positions (alat units)
        1     Mg  24.3050   tau(    1) = (    0.00000    0.00000    0.00000  )
        2     B   10.8110   tau(    2) = (   -0.00000    0.57735    0.57292  )
        3     B   10.8110   tau(    3) = (    0.50000    0.28868    0.57292  )

     Computing dynamical matrix for 
                    q = (   0.1250000   0.2165064  -0.4363586 )

      4 Sym.Ops. (no q -> -q+G )


     G cutoff =  238.9372  (  15395 G-vectors)     FFT grid: ( 32, 32, 36)
     G cutoff =  119.4686  (   5449 G-vectors)  smooth grid: ( 24, 24, 25)
     number of k points=    96

     PseudoPot. # 1 for B  read from file:
     ../../../pseudo/B.pbe-n-kjpaw_psl.0.1.upf
     MD5 check sum: b4345a612e0782cca08559f453f3313f
     Pseudo is Projector augmented-wave + core cor, Zval =  3.0
     Generated using "atomic" code by A. Dal Corso  v.5.0.99 svn rev. 10869
     Shape of augmentation charge: BESSEL
     Using radial grid of 1059 points,  4 beta functions with: 
                l(1) =   0
                l(2) =   0
                l(3) =   1
                l(4) =   1
     Q(r) pseudized with 0 coefficients 


     PseudoPot. # 2 for Mg read from file:
     ../../../pseudo/Mg.pbe-n-kjpaw_psl.0.3.0.upf
     MD5 check sum: 9eaefceb6cf3903db1b93e4e5c6adf9a
     Pseudo is Projector augmented-wave + core cor, Zval =  2.0
     Generated using "atomic" code by A. Dal Corso  v.5.0.99 svn rev. 10869
     Shape of augmentation charge: PSQ
     Using radial grid of 1129 points,  4 beta functions with: 
                l(1) =   0
                l(2) =   0
                l(3) =   1
                l(4) =   1
     Q(r) pseudized with 0 coefficients 



     Atomic displacements:
     There are    9 irreducible representations

     Representation     1      1 modes -  To be done

     Representation     2      1 modes -  To be done

     Representation     3      1 modes -  To be done

     Representation     4      1 modes -  To be done

     Representation     5      1 modes -  To be done

     Representation     6      1 modes -  To be done

     Representation     7      1 modes -  To be done

     Representation     8      1 modes -  To be done

     Representation     9      1 modes -  To be done


     PHONON       :      8.92s CPU     10.65s WALL

     Reading dVscf from file dv
     Reading dynamics matrix from file matdyn2

     Diagonalizing the dynamical matrix

     q = (    0.125000000   0.216506351  -0.436358562 ) 

 **************************************************************************
     freq (    1) =       7.263067 [THz] =     242.269849 [cm-1]
     freq (    2) =       7.587499 [THz] =     253.091712 [cm-1]
     freq (    3) =       8.634552 [THz] =     288.017667 [cm-1]
     freq (    4) =      10.962946 [THz] =     365.684515 [cm-1]
     freq (    5) =      12.736149 [THz] =     424.832194 [cm-1]
     freq (    6) =      13.799917 [THz] =     460.315687 [cm-1]
     freq (    7) =      18.963882 [THz] =     632.567013 [cm-1]
     freq (    8) =      19.288477 [THz] =     643.394324 [cm-1]
     freq (    9) =      21.244830 [THz] =     708.651252 [cm-1]
 **************************************************************************
 [elph_scdft]  write elph.dat with symmetries (only on Fermi surfaces)
 [elph_scdft]   Lowest band which contains FS :            3
 [elph_scdft]  Highest band which contains FS :            5
 [elph_scdft]    # of bands which contains FS :            3

     Calculation of q =    0.1250000   0.5051815   0.1454529
     Message from routine kpoint_grid:
     ATTENTION: skip check of k-points equivalence
     [opt_tetra]  Optimized tetrahedron method is used.

     G-vector sticks info
     --------------------
     sticks:   dense  smooth     PW     G-vecs:    dense   smooth      PW
     Sum         649     313    121                15395     5449    1179

     Using Slab Decomposition


     Title: 
     Electron-phonon matrix                                                     


     bravais-lattice index     =            0
     lattice parameter (alat)  =       5.8042  a.u.
     unit-cell volume          =     194.0373 (a.u.)^3
     number of atoms/cell      =            3
     number of atomic types    =            2
     number of electrons       =         8.00
     number of Kohn-Sham states=            8
     kinetic-energy cutoff     =      35.0000  Ry
     charge density cutoff     =     280.0000  Ry
     Exchange-correlation= PBE
                           (   1   4   3   4   0   0   0)

     celldm(1)=   5.804205  celldm(2)=   0.000000  celldm(3)=   0.000000
     celldm(4)=   0.000000  celldm(5)=   0.000000  celldm(6)=   0.000000

     crystal axes: (cart. coord. in units of alat)
               a(1) = (   1.000000   0.000000   0.000000 )  
               a(2) = (  -0.500000   0.866025   0.000000 )  
               a(3) = (   0.000000   0.000000   1.145847 )  

     reciprocal axes: (cart. coord. in units 2 pi/alat)
               b(1) = (  1.000000  0.577350 -0.000000 )  
               b(2) = (  0.000000  1.154701  0.000000 )  
               b(3) = (  0.000000 -0.000000  0.872717 )  


     PseudoPot. # 1 for B  read from file:
     ../../../pseudo/B.pbe-n-kjpaw_psl.0.1.upf
     MD5 check sum: b4345a612e0782cca08559f453f3313f
     Pseudo is Projector augmented-wave + core cor, Zval =  3.0
     Generated using "atomic" code by A. Dal Corso  v.5.0.99 svn rev. 10869
     Shape of augmentation charge: BESSEL
     Using radial grid of 1059 points,  4 beta functions with: 
                l(1) =   0
                l(2) =   0
                l(3) =   1
                l(4) =   1
     Q(r) pseudized with 0 coefficients 


     PseudoPot. # 2 for Mg read from file:
     ../../../pseudo/Mg.pbe-n-kjpaw_psl.0.3.0.upf
     MD5 check sum: 9eaefceb6cf3903db1b93e4e5c6adf9a
     Pseudo is Projector augmented-wave + core cor, Zval =  2.0
     Generated using "atomic" code by A. Dal Corso  v.5.0.99 svn rev. 10869
     Shape of augmentation charge: PSQ
     Using radial grid of 1129 points,  4 beta functions with: 
                l(1) =   0
                l(2) =   0
                l(3) =   1
                l(4) =   1
     Q(r) pseudized with 0 coefficients 


     atomic species   valence    mass     pseudopotential
        B              3.00    10.81100     B ( 1.00)
        Mg             2.00    24.30500     Mg( 1.00)

     24 Sym. Ops., with inversion, found



   Cartesian axes

     site n.     atom                  positions (alat units)
         1           Mg  tau(   1) = (   0.0000000   0.0000000   0.0000000  )
         2           B   tau(   2) = (  -0.0000000   0.5773503   0.5729233  )
         3           B   tau(   3) = (   0.5000000   0.2886751   0.5729233  )

     number of k points=    96 (tetrahedron method)
                       cart. coord. in units 2pi/alat
        k(    1) = (   0.0000000   0.0000000   0.0000000), wk =   0.0416667
        k(    2) = (   0.1250000   0.5051815   0.1454529), wk =   0.0000000
        k(    3) = (   0.0000000   0.0000000   0.2909057), wk =   0.0416667
        k(    4) = (   0.1250000   0.5051815   0.4363586), wk =   0.0000000
        k(    5) = (   0.0000000   0.0000000  -0.2909057), wk =   0.0416667
        k(    6) = (   0.1250000   0.5051815  -0.1454529), wk =   0.0000000
        k(    7) = (   0.0000000   0.2886751   0.0000000), wk =   0.0416667
        k(    8) = (   0.1250000   0.7938566   0.1454529), wk =   0.0000000
        k(    9) = (   0.0000000   0.2886751   0.2909057), wk =   0.0416667
        k(   10) = (   0.1250000   0.7938566   0.4363586), wk =   0.0000000
        k(   11) = (   0.0000000   0.2886751  -0.2909057), wk =   0.0416667
        k(   12) = (   0.1250000   0.7938566  -0.1454529), wk =   0.0000000
        k(   13) = (   0.0000000  -0.5773503   0.0000000), wk =   0.0416667
        k(   14) = (   0.1250000  -0.0721688   0.1454529), wk =   0.0000000
        k(   15) = (   0.0000000  -0.5773503   0.2909057), wk =   0.0416667
        k(   16) = (   0.1250000  -0.0721688   0.4363586), wk =   0.0000000
        k(   17) = (   0.0000000  -0.5773503  -0.2909057), wk =   0.0416667
        k(   18) = (   0.1250000  -0.0721688  -0.1454529), wk =   0.0000000
        k(   19) = (   0.0000000  -0.2886751   0.0000000), wk =   0.0416667
        k(   20) = (   0.1250000   0.2165064   0.1454529), wk =   0.0000000
        k(   21) = (   0.0000000  -0.2886751   0.2909057), wk =   0.0416667
        k(   22) = (   0.1250000   0.2165064   0.4363586), wk =   0.0000000
        k(   23) = (   0.0000000  -0.2886751  -0.2909057), wk =   0.0416667
        k(   24) = (   0.1250000   0.2165064  -0.1454529), wk =   0.0000000
        k(   25) = (   0.2500000   0.1443376   0.0000000), wk =   0.0416667
        k(   26) = (   0.3750000   0.6495191   0.1454529), wk =   0.0000000
        k(   27) = (   0.2500000   0.1443376   0.2909057), wk =   0.0416667
        k(   28) = (   0.3750000   0.6495191   0.4363586), wk =   0.0000000
        k(   29) = (   0.2500000   0.1443376  -0.2909057), wk =   0.0416667
        k(   30) = (   0.3750000   0.6495191  -0.1454529), wk =   0.0000000
        k(   31) = (   0.2500000   0.4330127   0.0000000), wk =   0.0416667
        k(   32) = (   0.3750000   0.9381942   0.1454529), wk =   0.0000000
        k(   33) = (   0.2500000   0.4330127   0.2909057), wk =   0.0416667
        k(   34) = (   0.3750000   0.9381942   0.4363586), wk =   0.0000000
        k(   35) = (   0.2500000   0.4330127  -0.2909057), wk =   0.0416667
        k(   36) = (   0.3750000   0.9381942  -0.1454529), wk =   0.0000000
        k(   37) = (   0.2500000  -0.4330127   0.0000000), wk =   0.0416667
        k(   38) = (   0.3750000   0.0721688   0.1454529), wk =   0.0000000
        k(   39) = (   0.2500000  -0.4330127   0.2909057), wk =   0.0416667
        k(   40) = (   0.3750000   0.0721688   0.4363586), wk =   0.0000000
        k(   41) = (   0.2500000  -0.4330127  -0.2909057), wk =   0.0416667
        k(   42) = (   0.3750000   0.0721688  -0.1454529), wk =   0.0000000
        k(   43) = (   0.2500000  -0.1443376   0.0000000), wk =   0.0416667
        k(   44) = (   0.3750000   0.3608439   0.1454529), wk =   0.0000000
        k(   45) = (   0.2500000  -0.1443376   0.2909057), wk =   0.0416667
        k(   46) = (   0.3750000   0.3608439   0.4363586), wk =   0.0000000
        k(   47) = (   0.2500000  -0.1443376  -0.2909057), wk =   0.0416667
        k(   48) = (   0.3750000   0.3608439  -0.1454529), wk =   0.0000000
        k(   49) = (  -0.5000000  -0.2886751   0.0000000), wk =   0.0416667
        k(   50) = (  -0.3750000   0.2165064   0.1454529), wk =   0.0000000
        k(   51) = (  -0.5000000  -0.2886751   0.2909057), wk =   0.0416667
        k(   52) = (  -0.3750000   0.2165064   0.4363586), wk =   0.0000000
        k(   53) = (  -0.5000000  -0.2886751  -0.2909057), wk =   0.0416667
        k(   54) = (  -0.3750000   0.2165064  -0.1454529), wk =   0.0000000
        k(   55) = (  -0.5000000  -0.0000000   0.0000000), wk =   0.0416667
        k(   56) = (  -0.3750000   0.5051815   0.1454529), wk =   0.0000000
        k(   57) = (  -0.5000000  -0.0000000   0.2909057), wk =   0.0416667
        k(   58) = (  -0.3750000   0.5051815   0.4363586), wk =   0.0000000
        k(   59) = (  -0.5000000  -0.0000000  -0.2909057), wk =   0.0416667
        k(   60) = (  -0.3750000   0.5051815  -0.1454529), wk =   0.0000000
        k(   61) = (  -0.5000000  -0.8660254   0.0000000), wk =   0.0416667
        k(   62) = (  -0.3750000  -0.3608439   0.1454529), wk =   0.0000000
        k(   63) = (  -0.5000000  -0.8660254   0.2909057), wk =   0.0416667
        k(   64) = (  -0.3750000  -0.3608439   0.4363586), wk =   0.0000000
        k(   65) = (  -0.5000000  -0.8660254  -0.2909057), wk =   0.0416667
        k(   66) = (  -0.3750000  -0.3608439  -0.1454529), wk =   0.0000000
        k(   67) = (  -0.5000000  -0.5773503   0.0000000), wk =   0.0416667
        k(   68) = (  -0.3750000  -0.0721688   0.1454529), wk =   0.0000000
        k(   69) = (  -0.5000000  -0.5773503   0.2909057), wk =   0.0416667
        k(   70) = (  -0.3750000  -0.0721688   0.4363586), wk =   0.0000000
        k(   71) = (  -0.5000000  -0.5773503  -0.2909057), wk =   0.0416667
        k(   72) = (  -0.3750000  -0.0721688  -0.1454529), wk =   0.0000000
        k(   73) = (  -0.2500000  -0.1443376   0.0000000), wk =   0.0416667
        k(   74) = (  -0.1250000   0.3608439   0.1454529), wk =   0.0000000
        k(   75) = (  -0.2500000  -0.1443376   0.2909057), wk =   0.0416667
        k(   76) = (  -0.1250000   0.3608439   0.4363586), wk =   0.0000000
        k(   77) = (  -0.2500000  -0.1443376  -0.2909057), wk =   0.0416667
        k(   78) = (  -0.1250000   0.3608439  -0.1454529), wk =   0.0000000
        k(   79) = (  -0.2500000   0.1443376   0.0000000), wk =   0.0416667
        k(   80) = (  -0.1250000   0.6495191   0.1454529), wk =   0.0000000
        k(   81) = (  -0.2500000   0.1443376   0.2909057), wk =   0.0416667
        k(   82) = (  -0.1250000   0.6495191   0.4363586), wk =   0.0000000
        k(   83) = (  -0.2500000   0.1443376  -0.2909057), wk =   0.0416667
        k(   84) = (  -0.1250000   0.6495191  -0.1454529), wk =   0.0000000
        k(   85) = (  -0.2500000  -0.7216878   0.0000000), wk =   0.0416667
        k(   86) = (  -0.1250000  -0.2165064   0.1454529), wk =   0.0000000
        k(   87) = (  -0.2500000  -0.7216878   0.2909057), wk =   0.0416667
        k(   88) = (  -0.1250000  -0.2165064   0.4363586), wk =   0.0000000
        k(   89) = (  -0.2500000  -0.7216878  -0.2909057), wk =   0.0416667
        k(   90) = (  -0.1250000  -0.2165064  -0.1454529), wk =   0.0000000
        k(   91) = (  -0.2500000  -0.4330127   0.0000000), wk =   0.0416667
        k(   92) = (  -0.1250000   0.0721688   0.1454529), wk =   0.0000000
        k(   93) = (  -0.2500000  -0.4330127   0.2909057), wk =   0.0416667
        k(   94) = (  -0.1250000   0.0721688   0.4363586), wk =   0.0000000
        k(   95) = (  -0.2500000  -0.4330127  -0.2909057), wk =   0.0416667
        k(   96) = (  -0.1250000   0.0721688  -0.1454529), wk =   0.0000000

     Dense  grid:    15395 G-vectors     FFT dimensions: (  32,  32,  36)

     Smooth grid:     5449 G-vectors     FFT dimensions: (  24,  24,  25)

     Estimated max dynamical RAM per process >       7.23 MB

     Estimated total dynamical RAM >     173.56 MB

     Check: negative core charge=   -0.000006

     The potential is recalculated from file :
     ./_ph0/pwscf.q_3/pwscf.save/charge-density

     Starting wfcs are   12 atomic wfcs
     Checking if some PAW data can be deallocated... 

     Band Structure Calculation
     Davidson diagonalization with overlap

     ethr =  1.25E-10,  avg # of iterations = 20.6

     total cpu time spent up to now is        3.8 secs

     End of band structure calculation

          k = 0.0000 0.0000 0.0000 (   709 PWs)   bands (ev):

    -4.7856   4.7169   8.0859   8.0859   9.3182  14.0810  14.0810  15.9413

          k = 0.1250 0.5052 0.1455 (   674 PWs)   bands (ev):

    -1.1540   0.9720   4.6047   6.5055   9.5495  13.5675  14.6325  16.1078

          k = 0.0000 0.0000 0.2909 (   690 PWs)   bands (ev):

    -3.9413   1.1725   8.3605   8.3605  14.3197  14.3197  15.0532  15.8003

          k = 0.1250 0.5052 0.4364 (   678 PWs)   bands (ev):

    -0.3454   1.6501   3.8935   4.9668   6.9904  13.7677  14.7869  19.8646

          k = 0.0000 0.0000-0.2909 (   690 PWs)   bands (ev):

    -3.9413   1.1725   8.3605   8.3605  14.3197  14.3197  15.0532  15.8003

          k = 0.1250 0.5052-0.1455 (   674 PWs)   bands (ev):

    -1.1540   0.9720   4.6047   6.5055   9.5495  13.5675  14.6325  16.1078

          k = 0.0000 0.2887 0.0000 (   681 PWs)   bands (ev):

    -3.6967   4.3221   5.7684   6.5101  10.2984  13.1165  14.5810  17.0309

          k = 0.1250 0.7939 0.1455 (   678 PWs)   bands (ev):

    -2.6811   3.2634   5.0257   5.2573  11.6306  13.0288  14.3950  16.9027

[...]

    -0.1967   0.4723   4.9116   5.7426   7.1851  13.0425  17.1668  18.1844

          k = 0.3750-0.7939-0.7273 (   674 PWs)   bands (ev):

    -1.1540   0.9720   4.6047   6.5055   9.5495  13.5675  14.6325  16.1078

          k = 0.0000-0.2887 0.0000 (   681 PWs)   bands (ev):

    -3.6967   4.3221   5.7684   6.5101  10.2984  13.1165  14.5810  17.0309

          k = 0.3750-0.5052-0.4364 (   678 PWs)   bands (ev):

     0.7975   1.3487   3.1679   5.0033   6.2590  11.6945  17.5170  20.5975

          k = 0.0000-0.2887 0.2909 (   680 PWs)   bands (ev):

    -2.9073   2.3497   4.7869   6.7418  11.5392  13.6809  16.1211  18.0281

          k = 0.3750-0.5052-0.1455 (   675 PWs)   bands (ev):

     0.0469   0.6595   2.6610   7.5260   8.7900  14.3040  15.3094  15.5921

          k = 0.0000-0.2887-0.2909 (   680 PWs)   bands (ev):

    -2.9073   2.3497   4.7869   6.7418  11.5392  13.6809  16.1211  18.0281

          k = 0.3750-0.5052-0.7273 (   675 PWs)   bands (ev):

     0.0469   0.6595   2.6610   7.5260   8.7900  14.3040  15.3094  15.5921

          k = 0.2500 0.1443 0.0000 (   681 PWs)   bands (ev):

    -3.6967   4.3221   5.7684   6.5101  10.2984  13.1165  14.5810  17.0309

          k = 0.6250-0.0722-0.4364 (   678 PWs)   bands (ev):

     0.7975   1.3487   3.1679   5.0033   6.2590  11.6945  17.5170  20.5975

          k = 0.2500 0.1443 0.2909 (   680 PWs)   bands (ev):

    -2.9073   2.3497   4.7869   6.7418  11.5392  13.6809  16.1211  18.0281

          k = 0.6250-0.0722-0.1455 (   675 PWs)   bands (ev):

     0.0469   0.6595   2.6610   7.5260   8.7900  14.3040  15.3094  15.5921

          k = 0.2500 0.1443-0.2909 (   680 PWs)   bands (ev):

    -2.9073   2.3497   4.7869   6.7418  11.5392  13.6809  16.1211  18.0281

          k = 0.6250-0.0722-0.7273 (   675 PWs)   bands (ev):

     0.0469   0.6595   2.6610   7.5260   8.7900  14.3040  15.3094  15.5921

          k = 0.2500 0.4330 0.0000 (   673 PWs)   bands (ev):

    -1.5955   1.9992   3.1104   7.7211  11.4346  12.3899  14.7394  16.0952

          k = 0.6250 0.2165-0.4364 (   678 PWs)   bands (ev):

    -0.3454   1.6501   3.8935   4.9668   6.9904  13.7677  14.7869  19.8646

          k = 0.2500 0.4330 0.2909 (   678 PWs)   bands (ev):

    -0.9037   2.5530   3.5246   4.5533   8.3547  13.1327  16.8169  17.8007

          k = 0.6250 0.2165-0.1455 (   674 PWs)   bands (ev):

    -1.1540   0.9720   4.6047   6.5055   9.5495  13.5675  14.6325  16.1078

          k = 0.2500 0.4330-0.2909 (   678 PWs)   bands (ev):

    -0.9037   2.5530   3.5246   4.5533   8.3547  13.1327  16.8169  17.8007

          k = 0.6250 0.2165-0.7273 (   674 PWs)   bands (ev):

    -1.1540   0.9720   4.6047   6.5055   9.5495  13.5675  14.6325  16.1078

          k = 0.2500-0.4330 0.0000 (   673 PWs)   bands (ev):

    -1.5955   1.9992   3.1104   7.7211  11.4346  12.3899  14.7394  16.0952

          k = 0.6250-0.6495-0.4364 (   684 PWs)   bands (ev):

    -1.7752   2.3358   3.8319   5.5062   9.3326  14.6279  15.0106  18.3460

          k = 0.2500-0.4330 0.2909 (   678 PWs)   bands (ev):

    -0.9037   2.5530   3.5246   4.5533   8.3547  13.1327  16.8169  17.8007

          k = 0.6250-0.6495-0.1455 (   678 PWs)   bands (ev):

    -2.6811   3.2634   5.0257   5.2573  11.6306  13.0288  14.3950  16.9027

          k = 0.2500-0.4330-0.2909 (   678 PWs)   bands (ev):

    -0.9037   2.5530   3.5246   4.5533   8.3547  13.1327  16.8169  17.8007

          k = 0.6250-0.6495-0.7273 (   678 PWs)   bands (ev):

    -2.6811   3.2634   5.0257   5.2573  11.6306  13.0288  14.3950  16.9027

          k = 0.2500-0.1443 0.0000 (   681 PWs)   bands (ev):

    -3.6967   4.3221   5.7684   6.5101  10.2984  13.1165  14.5810  17.0309

          k = 0.6250-0.3608-0.4364 (   674 PWs)   bands (ev):

    -1.2898   2.5768   2.8878   6.0801   8.1152  13.6288  16.8835  16.9160

          k = 0.2500-0.1443 0.2909 (   680 PWs)   bands (ev):

    -2.9073   2.3497   4.7869   6.7418  11.5392  13.6809  16.1211  18.0281

          k = 0.6250-0.3608-0.1455 (   681 PWs)   bands (ev):

    -2.1607   1.9432   5.6074   5.8554  10.5142  12.4970  13.9548  17.4168

          k = 0.2500-0.1443-0.2909 (   680 PWs)   bands (ev):

    -2.9073   2.3497   4.7869   6.7418  11.5392  13.6809  16.1211  18.0281

          k = 0.6250-0.3608-0.7273 (   681 PWs)   bands (ev):

    -2.1607   1.9432   5.6074   5.8554  10.5142  12.4970  13.9548  17.4168

          k =-0.5000-0.2887 0.0000 (   676 PWs)   bands (ev):

    -0.8559  -0.1616   5.5309   7.8975  10.7860  11.6276  13.0221  14.8253

          k =-0.1250-0.5052-0.4364 (   678 PWs)   bands (ev):

    -0.3454   1.6501   3.8935   4.9668   6.9904  13.7677  14.7869  19.8646

          k =-0.5000-0.2887 0.2909 (   670 PWs)   bands (ev):

    -0.1967   0.4723   4.9116   5.7426   7.1851  13.0425  17.1668  18.1844

          k =-0.1250-0.5052-0.1455 (   674 PWs)   bands (ev):

    -1.1540   0.9720   4.6047   6.5055   9.5495  13.5675  14.6325  16.1078

          k =-0.5000-0.2887-0.2909 (   670 PWs)   bands (ev):

    -0.1967   0.4723   4.9116   5.7426   7.1851  13.0425  17.1668  18.1844

          k =-0.1250-0.5052-0.7273 (   674 PWs)   bands (ev):

    -1.1540   0.9720   4.6047   6.5055   9.5495  13.5675  14.6325  16.1078

          k =-0.5000-0.0000 0.0000 (   673 PWs)   bands (ev):

    -1.5955   1.9992   3.1104   7.7211  11.4346  12.3899  14.7394  16.0952

          k =-0.1250-0.2165-0.4364 (   682 PWs)   bands (ev):

    -2.7568   1.1457   5.9356   6.6474  11.8775  14.9549  16.3499  16.4235

          k =-0.5000-0.0000 0.2909 (   678 PWs)   bands (ev):

    -0.9037   2.5530   3.5246   4.5533   8.3547  13.1327  16.8169  17.8007

          k =-0.1250-0.2165-0.1455 (   679 PWs)   bands (ev):

    -3.7408   4.0413   5.4799   6.3476  12.0822  13.8398  14.5571  15.8796

          k =-0.5000-0.0000-0.2909 (   678 PWs)   bands (ev):

    -0.9037   2.5530   3.5246   4.5533   8.3547  13.1327  16.8169  17.8007

          k =-0.1250-0.2165-0.7273 (   679 PWs)   bands (ev):

    -3.7408   4.0413   5.4799   6.3476  12.0822  13.8398  14.5571  15.8796

          k =-0.5000-0.8660 0.0000 (   676 PWs)   bands (ev):

    -0.8559  -0.1616   5.5309   7.8975  10.7860  11.6276  13.0221  14.8253

          k =-0.1250-1.0825-0.4364 (   682 PWs)   bands (ev):

    -3.2517   0.5286   7.2987   7.8539  13.9292  14.3706  15.5756  17.8725

          k =-0.5000-0.8660 0.2909 (   670 PWs)   bands (ev):

    -0.1967   0.4723   4.9116   5.7426   7.1851  13.0425  17.1668  18.1844

          k =-0.1250-1.0825-0.1455 (   687 PWs)   bands (ev):

    -4.2788   3.4916   6.9279   7.5863  11.5857  13.9801  15.2971  15.4941

          k =-0.5000-0.8660-0.2909 (   670 PWs)   bands (ev):

    -0.1967   0.4723   4.9116   5.7426   7.1851  13.0425  17.1668  18.1844

          k =-0.1250-1.0825-0.7273 (   687 PWs)   bands (ev):

    -4.2788   3.4916   6.9279   7.5863  11.5857  13.9801  15.2971  15.4941

          k =-0.5000-0.5774 0.0000 (   673 PWs)   bands (ev):

    -1.5955   1.9992   3.1104   7.7211  11.4346  12.3899  14.7394  16.0952

          k =-0.1250-0.7939-0.4364 (   684 PWs)   bands (ev):

    -1.7752   2.3358   3.8319   5.5062   9.3326  14.6279  15.0106  18.3460

          k =-0.5000-0.5774 0.2909 (   678 PWs)   bands (ev):

    -0.9037   2.5530   3.5246   4.5533   8.3547  13.1327  16.8169  17.8007

          k =-0.1250-0.7939-0.1455 (   678 PWs)   bands (ev):

    -2.6811   3.2634   5.0257   5.2573  11.6306  13.0288  14.3950  16.9027

          k =-0.5000-0.5774-0.2909 (   678 PWs)   bands (ev):

    -0.9037   2.5530   3.5246   4.5533   8.3547  13.1327  16.8169  17.8007

          k =-0.1250-0.7939-0.7273 (   678 PWs)   bands (ev):

    -2.6811   3.2634   5.0257   5.2573  11.6306  13.0288  14.3950  16.9027

          k =-0.2500-0.1443 0.0000 (   681 PWs)   bands (ev):

    -3.6967   4.3221   5.7684   6.5101  10.2984  13.1165  14.5810  17.0309

          k = 0.1250-0.3608-0.4364 (   684 PWs)   bands (ev):

    -1.7752   2.3358   3.8319   5.5062   9.3326  14.6279  15.0106  18.3460

          k =-0.2500-0.1443 0.2909 (   680 PWs)   bands (ev):

    -2.9073   2.3497   4.7869   6.7418  11.5392  13.6809  16.1211  18.0281

          k = 0.1250-0.3608-0.1455 (   678 PWs)   bands (ev):

    -2.6811   3.2634   5.0257   5.2573  11.6306  13.0288  14.3950  16.9027

          k =-0.2500-0.1443-0.2909 (   680 PWs)   bands (ev):

    -2.9073   2.3497   4.7869   6.7418  11.5392  13.6809  16.1211  18.0281

          k = 0.1250-0.3608-0.7273 (   678 PWs)   bands (ev):

    -2.6811   3.2634   5.0257   5.2573  11.6306  13.0288  14.3950  16.9027

          k =-0.2500 0.1443 0.0000 (   681 PWs)   bands (ev):

    -3.6967   4.3221   5.7684   6.5101  10.2984  13.1165  14.5810  17.0309

          k = 0.1250-0.0722-0.4364 (   682 PWs)   bands (ev):

    -3.2517   0.5286   7.2987   7.8539  13.9292  14.3706  15.5756  17.8725

          k =-0.2500 0.1443 0.2909 (   680 PWs)   bands (ev):

    -2.9073   2.3497   4.7869   6.7418  11.5392  13.6809  16.1211  18.0281

          k = 0.1250-0.0722-0.1455 (   687 PWs)   bands (ev):

    -4.2788   3.4916   6.9279   7.5863  11.5857  13.9801  15.2971  15.4941

          k =-0.2500 0.1443-0.2909 (   680 PWs)   bands (ev):

    -2.9073   2.3497   4.7869   6.7418  11.5392  13.6809  16.1211  18.0281

          k = 0.1250-0.0722-0.7273 (   687 PWs)   bands (ev):

    -4.2788   3.4916   6.9279   7.5863  11.5857  13.9801  15.2971  15.4941

          k =-0.2500-0.7217 0.0000 (   673 PWs)   bands (ev):

    -1.5955   1.9992   3.1104   7.7211  11.4346  12.3899  14.7394  16.0952

          k = 0.1250-0.9382-0.4364 (   682 PWs)   bands (ev):

    -2.7568   1.1457   5.9356   6.6474  11.8775  14.9549  16.3499  16.4235

          k =-0.2500-0.7217 0.2909 (   678 PWs)   bands (ev):

    -0.9037   2.5530   3.5246   4.5533   8.3547  13.1327  16.8169  17.8007

          k = 0.1250-0.9382-0.1455 (   679 PWs)   bands (ev):

    -3.7408   4.0413   5.4799   6.3476  12.0822  13.8398  14.5571  15.8796

          k =-0.2500-0.7217-0.2909 (   678 PWs)   bands (ev):

    -0.9037   2.5530   3.5246   4.5533   8.3547  13.1327  16.8169  17.8007

          k = 0.1250-0.9382-0.7273 (   679 PWs)   bands (ev):

    -3.7408   4.0413   5.4799   6.3476  12.0822  13.8398  14.5571  15.8796

          k =-0.2500-0.4330 0.0000 (   673 PWs)   bands (ev):

    -1.5955   1.9992   3.1104   7.7211  11.4346  12.3899  14.7394  16.0952

          k = 0.1250-0.6495-0.4364 (   678 PWs)   bands (ev):

    -0.3454   1.6501   3.8935   4.9668   6.9904  13.7677  14.7869  19.8646

          k =-0.2500-0.4330 0.2909 (   678 PWs)   bands (ev):

    -0.9037   2.5530   3.5246   4.5533   8.3547  13.1327  16.8169  17.8007

          k = 0.1250-0.6495-0.1455 (   674 PWs)   bands (ev):

    -1.1540   0.9720   4.6047   6.5055   9.5495  13.5675  14.6325  16.1078

          k =-0.2500-0.4330-0.2909 (   678 PWs)   bands (ev):

    -0.9037   2.5530   3.5246   4.5533   8.3547  13.1327  16.8169  17.8007

          k = 0.1250-0.6495-0.7273 (   674 PWs)   bands (ev):

    -1.1540   0.9720   4.6047   6.5055   9.5495  13.5675  14.6325  16.1078

     the Fermi energy is     7.7432 ev

     Writing output data file ./_ph0/pwscf.q_12/pwscf.save/
 
     [dfpt_tetra]  Dos(E_F)[/Ry] :   0.1053843E+02

     Electron-phonon matrix                                                     

     bravais-lattice index     =            0
     lattice parameter (alat)  =       5.8042  a.u.
     unit-cell volume          =     194.0373 (a.u.)^3
     number of atoms/cell      =            3
     number of atomic types    =            2
     kinetic-energy cut-off    =      35.0000  Ry
     charge density cut-off    =     280.0000  Ry
     convergence threshold     =      1.0E-12
     beta                      =       0.7000
     number of iterations used =            4
     Exchange-correlation= PBE
                           (   1   4   3   4   0   0   0)


     celldm(1)=    5.80420  celldm(2)=    0.00000  celldm(3)=    0.00000
     celldm(4)=    0.00000  celldm(5)=    0.00000  celldm(6)=    0.00000

     crystal axes: (cart. coord. in units of alat)
               a(1) = (  1.0000  0.0000  0.0000 )  
               a(2) = ( -0.5000  0.8660  0.0000 )  
               a(3) = (  0.0000  0.0000  1.1458 )  

     reciprocal axes: (cart. coord. in units 2 pi/alat)
               b(1) = (  1.0000  0.5774 -0.0000 )  
               b(2) = (  0.0000  1.1547  0.0000 )  
               b(3) = (  0.0000 -0.0000  0.8727 )  


     Atoms inside the unit cell: 

     Cartesian axes

     site n.  atom      mass           positions (alat units)
        1     Mg  24.3050   tau(    1) = (    0.00000    0.00000    0.00000  )
        2     B   10.8110   tau(    2) = (   -0.00000    0.57735    0.57292  )
        3     B   10.8110   tau(    3) = (    0.50000    0.28868    0.57292  )

     Computing dynamical matrix for 
                    q = (   0.3750000  -0.2165064  -0.4363586 )

      4 Sym.Ops. (no q -> -q+G )


     G cutoff =  238.9372  (  15395 G-vectors)     FFT grid: ( 32, 32, 36)
     G cutoff =  119.4686  (   5449 G-vectors)  smooth grid: ( 24, 24, 25)
     number of k points=    96

     PseudoPot. # 1 for B  read from file:
     ../../../pseudo/B.pbe-n-kjpaw_psl.0.1.upf
     MD5 check sum: b4345a612e0782cca08559f453f3313f
     Pseudo is Projector augmented-wave + core cor, Zval =  3.0
     Generated using "atomic" code by A. Dal Corso  v.5.0.99 svn rev. 10869
     Shape of augmentation charge: BESSEL
     Using radial grid of 1059 points,  4 beta functions with: 
                l(1) =   0
                l(2) =   0
                l(3) =   1
                l(4) =   1
     Q(r) pseudized with 0 coefficients 


     PseudoPot. # 2 for Mg read from file:
     ../../../pseudo/Mg.pbe-n-kjpaw_psl.0.3.0.upf
     MD5 check sum: 9eaefceb6cf3903db1b93e4e5c6adf9a
     Pseudo is Projector augmented-wave + core cor, Zval =  2.0
     Generated using "atomic" code by A. Dal Corso  v.5.0.99 svn rev. 10869
     Shape of augmentation charge: PSQ
     Using radial grid of 1129 points,  4 beta functions with: 
                l(1) =   0
                l(2) =   0
                l(3) =   1
                l(4) =   1
     Q(r) pseudized with 0 coefficients 



     Atomic displacements:
     There are    9 irreducible representations

     Representation     1      1 modes -  To be done

     Representation     2      1 modes -  To be done

     Representation     3      1 modes -  To be done

     Representation     4      1 modes -  To be done

     Representation     5      1 modes -  To be done

     Representation     6      1 modes -  To be done

     Representation     7      1 modes -  To be done

     Representation     8      1 modes -  To be done

     Representation     9      1 modes -  To be done


     PHONON       :     53.57s CPU   1m 8.60s WALL

     Reading dVscf from file dv
     Reading dynamics matrix from file matdyn12

     Diagonalizing the dynamical matrix

     q = (    0.375000000  -0.216506351  -0.436358562 ) 

 **************************************************************************
     freq (    1) =       7.633686 [THz] =     254.632348 [cm-1]
     freq (    2) =       8.266906 [THz] =     275.754293 [cm-1]
     freq (    3) =       8.778700 [THz] =     292.825925 [cm-1]
     freq (    4) =      13.271612 [THz] =     442.693335 [cm-1]
     freq (    5) =      13.886181 [THz] =     463.193157 [cm-1]
     freq (    6) =      17.940560 [THz] =     598.432661 [cm-1]
     freq (    7) =      19.626900 [THz] =     654.682907 [cm-1]
     freq (    8) =      22.268301 [THz] =     742.790575 [cm-1]
     freq (    9) =      24.057932 [THz] =     802.486248 [cm-1]
 **************************************************************************
 [elph_scdft]  write elph.dat with symmetries (only on Fermi surfaces)
 [elph_scdft]   Lowest band which contains FS :            3
 [elph_scdft]  Highest band which contains FS :            5
 [elph_scdft]    # of bands which contains FS :            3

     init_run     :      8.32s CPU      8.41s WALL (      12 calls)
     electrons    :      5.59s CPU      5.70s WALL (      12 calls)

     Called by init_run:
     wfcinit      :      0.00s CPU      0.02s WALL (      12 calls)
     potinit      :      1.18s CPU      1.22s WALL (      12 calls)
     hinit0       :      6.95s CPU      6.97s WALL (      12 calls)

     Called by electrons:
     c_bands      :      5.27s CPU      5.38s WALL (      12 calls)
     v_of_rho     :      0.39s CPU      0.40s WALL (      13 calls)
     newd         :      0.05s CPU      0.06s WALL (      13 calls)
     PAW_pot      :      0.44s CPU      0.46s WALL (      13 calls)

     Called by c_bands:
     init_us_2    :      0.09s CPU      0.10s WALL (     336 calls)
     cegterg      :      3.01s CPU      3.07s WALL (      56 calls)

     Called by *egterg:
     cdiaghg      :      0.15s CPU      0.16s WALL (     838 calls)
     h_psi        :      2.69s CPU      2.74s WALL (     894 calls)
     s_psi        :      0.07s CPU      0.07s WALL (     894 calls)
     g_psi        :      0.08s CPU      0.08s WALL (     790 calls)

     Called by h_psi:
     h_psi:calbec :      0.08s CPU      0.08s WALL (     894 calls)
     vloc_psi     :      2.53s CPU      2.58s WALL (     894 calls)
     add_vuspsi   :      0.07s CPU      0.07s WALL (     894 calls)

     General routines
     calbec       :      0.11s CPU      0.12s WALL (    1302 calls)
     fft          :      0.57s CPU      0.58s WALL (     672 calls)
     ffts         :      0.16s CPU      0.17s WALL (     564 calls)
     fftw         :      3.33s CPU      3.39s WALL (   18432 calls)
     interpolate  :      0.30s CPU      0.32s WALL (     240 calls)
     davcio       :      0.06s CPU      0.07s WALL (     926 calls)

     Parallel routines

     PHONON       :     54.56s CPU   1m10.78s WALL

     INITIALIZATION: 
     phq_setup    :      1.21s CPU      1.53s WALL (      12 calls)
     phq_init     :     26.08s CPU     26.21s WALL (      12 calls)

     phq_init     :     26.08s CPU     26.21s WALL (      12 calls)
     set_drhoc    :      8.68s CPU      8.69s WALL (      12 calls)
     init_vloc    :      0.33s CPU      0.33s WALL (      13 calls)
     init_us_1    :      5.84s CPU      5.85s WALL (      13 calls)
     newd         :      0.05s CPU      0.06s WALL (      13 calls)
     dvanqq       :      9.85s CPU      9.89s WALL (      24 calls)
     drho         :      6.96s CPU      7.04s WALL (      12 calls)




     dvqpsi_us    :      0.94s CPU      0.96s WALL (     216 calls)
     addusddens   :      5.51s CPU      5.54s WALL (     108 calls)
     newdq        :      5.09s CPU      5.11s WALL (     108 calls)
     adddvscf     :      0.03s CPU      0.03s WALL (     216 calls)

     dvqpsi_us    :      0.94s CPU      0.96s WALL (     216 calls)
     dvqpsi_us_on :      0.13s CPU      0.13s WALL (     216 calls)


     h_psi        :      2.69s CPU      2.74s WALL (     894 calls)

     h_psi        :      2.69s CPU      2.74s WALL (     894 calls)
     add_vuspsi   :      0.07s CPU      0.07s WALL (     894 calls)

     addusdbec    :      0.02s CPU      0.02s WALL (     216 calls)


      Electron-phonon coupling
     elphon       :      7.19s CPU      7.25s WALL (      12 calls)
     elphel       :      1.33s CPU      1.35s WALL (     108 calls)

      General routines
     calbec       :      0.11s CPU      0.12s WALL (    1302 calls)
     fft          :      0.57s CPU      0.58s WALL (     672 calls)
     ffts         :      0.16s CPU      0.17s WALL (     564 calls)
     fftw         :      3.33s CPU      3.39s WALL (   18432 calls)
     davcio       :      0.06s CPU      0.07s WALL (     926 calls)


     PHONON       :     54.56s CPU   1m10.78s WALL


   This run was terminated on:  11:19: 9  29Jun2022            

=------------------------------------------------------------------------------=
   JOB DONE.
=------------------------------------------------------------------------------=
