
     Program PWSCF v.7.4.1 starts on 15Mar2026 at 23: 8:10 

     This program is part of the open-source Quantum ESPRESSO suite
     for quantum simulation of materials; please cite
         "P. Giannozzi et al., J. Phys.:Condens. Matter 21 395502 (2009);
         "P. Giannozzi et al., J. Phys.:Condens. Matter 29 465901 (2017);
         "P. Giannozzi et al., J. Chem. Phys. 152 154105 (2020);
          URL http://www.quantum-espresso.org", 
     in publications or presentations arising from this work. More details at
     http://www.quantum-espresso.org/quote

     Parallel version (MPI & OpenMP), running on      64 processor cores
     Number of MPI processes:                64
     Threads/MPI process:                     1

     MPI processes distributed on     1 nodes
     225024 MiB available memory on the printing compute node when the environment starts
 
     Reading input from nscf.in

     Current dimensions of program PWSCF are:
     Max number of different atomic species (ntypx) = 10
     Max number of k-points (npk) =  40000
     Max angular momentum in pseudopotentials (lmaxx) =  4
     file B.pbe-n-kjpaw_psl.0.1.upf: wavefunction(s)  2P renormalized
     file Mg.pbe-n-kjpaw_psl.0.3.0.upf: wavefunction(s)  3S renormalized

     Atomic positions and unit cell read from directory:
     ./pwscf.save/
 
     Message from routine setup:
     using ibrav=0 with symmetry is DISCOURAGED, use correct ibrav instead
     [opt_tetra]  Optimized tetrahedron method is used.
 
     K-points division:     npool     =      64
     Subspace diagonalization in iterative solution of the eigenvalue problem:
     a serial algorithm will be used

 
     G-vector sticks info
     --------------------
     sticks:   dense  smooth     PW     G-vecs:    dense   smooth      PW
     Sum         649     313    109                15395     5449    1011
 
     Using Slab Decomposition
 


     bravais-lattice index     =            0
     lattice parameter (alat)  =       5.8042  a.u.
     unit-cell volume          =     194.0373 (a.u.)^3
     number of atoms/cell      =            3
     number of atomic types    =            2
     number of electrons       =         8.00
     number of Kohn-Sham states=           15
     kinetic-energy cutoff     =      35.0000  Ry
     charge density cutoff     =     280.0000  Ry
     Exchange-correlation= SLA  PW   PBX  PBC
                           (   1   4   3   4   0   0   0)

     celldm(1)=   5.804205  celldm(2)=   0.000000  celldm(3)=   0.000000
     celldm(4)=   0.000000  celldm(5)=   0.000000  celldm(6)=   0.000000

     crystal axes: (cart. coord. in units of alat)
               a(1) = (   1.000000   0.000000   0.000000 )  
               a(2) = (  -0.500000   0.866025   0.000000 )  
               a(3) = (   0.000000   0.000000   1.145847 )  

     reciprocal axes: (cart. coord. in units 2 pi/alat)
               b(1) = (  1.000000  0.577350  0.000000 )  
               b(2) = (  0.000000  1.154701  0.000000 )  
               b(3) = (  0.000000  0.000000  0.872717 )  


     PseudoPot. # 1 for B  read from file:
     ./B.pbe-n-kjpaw_psl.0.1.upf
     MD5 check sum: b4345a612e0782cca08559f453f3313f
     Pseudo is Projector augmented-wave + core cor, Zval =  3.0
     Generated using "atomic" code by A. Dal Corso  v.5.0.99 svn rev. 10869
     Shape of augmentation charge: BESSEL
     Using radial grid of 1059 points,  4 beta functions with: 
                l(1) =   0
                l(2) =   0
                l(3) =   1
                l(4) =   1
     Q(r) pseudized with 0 coefficients 


     PseudoPot. # 2 for Mg read from file:
     ./Mg.pbe-n-kjpaw_psl.0.3.0.upf
     MD5 check sum: 9eaefceb6cf3903db1b93e4e5c6adf9a
     Pseudo is Projector augmented-wave + core cor, Zval =  2.0
     Generated using "atomic" code by A. Dal Corso  v.5.0.99 svn rev. 10869
     Shape of augmentation charge: PSQ
     Using radial grid of 1129 points,  4 beta functions with: 
                l(1) =   0
                l(2) =   0
                l(3) =   1
                l(4) =   1
     Q(r) pseudized with 0 coefficients 


     atomic species   valence    mass     pseudopotential
     B                 3.00    10.81100     B ( 1.00)
     Mg                2.00    24.30500     Mg( 1.00)

     24 Sym. Ops., with inversion, found



   Cartesian axes

     site n.     atom                  positions (alat units)
         1        Mg     tau(   1) = (   0.0000000   0.0000000   0.0000000  )
         2        B      tau(   2) = (  -0.0000000   0.5773503   0.5729233  )
         3        B      tau(   3) = (   0.5000000   0.2886751   0.5729233  )

     number of k points=   210 (tetrahedron method)

     Number of k-points >= 100: set verbosity='high' to print them.

     Dense  grid:    15395 G-vectors     FFT dimensions: (  32,  32,  36)

     Smooth grid:     5449 G-vectors     FFT dimensions: (  24,  24,  25)

     Estimated max dynamical RAM per process >       7.20 MB

     Estimated total dynamical RAM >     460.84 MB

     Check: negative core charge=   -0.000006

     The potential is recalculated from file :
     ./pwscf.save/charge-density

     Starting wfcs are   12 randomized atomic wfcs +    3 random wfcs
     Checking if some PAW data can be deallocated... 

     Band Structure Calculation
     Davidson diagonalization with overlap

     ethr =  1.25E-08,  avg # of iterations = 37.8

     total cpu time spent up to now is        1.4 secs

     End of band structure calculation

     Number of k-points >= 100: set verbosity='high' to print the bands.

     the Fermi energy is     7.6811 ev
     (compare with:     7.6604 eV, computed in scf)

     Writing all to output data dir ./pwscf.save/ :
     XML data file, pseudopotentials, collected wavefunctions
 
     init_run     :      0.31s CPU      0.36s WALL (       1 calls)
     electrons    :      0.48s CPU      0.49s WALL (       1 calls)

     Called by init_run:
     wfcinit      :      0.00s CPU      0.00s WALL (       1 calls)
     potinit      :      0.09s CPU      0.11s WALL (       1 calls)
     hinit0       :      0.21s CPU      0.21s WALL (       1 calls)

     Called by electrons:
     c_bands      :      0.42s CPU      0.42s WALL (       1 calls)
     v_of_rho     :      0.01s CPU      0.01s WALL (       1 calls)
     newd         :      0.00s CPU      0.00s WALL (       1 calls)
     PAW_pot      :      0.03s CPU      0.03s WALL (       1 calls)

     Called by c_bands:
     init_us_2    :      0.00s CPU      0.00s WALL (       4 calls)
     cegterg      :      0.24s CPU      0.25s WALL (       9 calls)

     Called by *egterg:
     cdiaghg      :      0.03s CPU      0.04s WALL (     129 calls)
     h_psi        :      0.16s CPU      0.16s WALL (     138 calls)
     s_psi        :      0.01s CPU      0.01s WALL (     138 calls)
     g_psi        :      0.00s CPU      0.00s WALL (     125 calls)

     Called by h_psi:
     h_psi:calbec :      0.01s CPU      0.01s WALL (     138 calls)
     vloc_psi     :      0.15s CPU      0.15s WALL (     138 calls)
     add_vuspsi   :      0.01s CPU      0.01s WALL (     138 calls)

     General routines
     calbec       :      0.01s CPU      0.01s WALL (     138 calls)
     fft          :      0.00s CPU      0.00s WALL (      13 calls)
     ffts         :      0.00s CPU      0.00s WALL (       1 calls)
     fftw         :      0.10s CPU      0.10s WALL (    2776 calls)
     interpolate  :      0.00s CPU      0.00s WALL (       1 calls)
     davcio       :      0.00s CPU      0.00s WALL (       8 calls)
 
     Parallel routines
 
     PWSCF        :      1.28s CPU      1.53s WALL

 
   This run was terminated on:  23: 8:12  15Mar2026            

=------------------------------------------------------------------------------=
   JOB DONE.
=------------------------------------------------------------------------------=
