--------------------------------------------------------------------------
Open MPI's OFI driver detected multiple equidistant NICs from the current process,
but had insufficient information to ensure MPI processes fairly pick a NIC for use.
This may negatively impact performance. A more modern PMIx server is necessary to
resolve this issue.

Note: This message is displayed only when the OFI component's verbosity level is
957294768 or higher.
--------------------------------------------------------------------------
--------------------------------------------------------------------------
WARNING: There was an error initializing an OpenFabrics device.

  Local host:   macloud2
  Local device: mlx4_0
--------------------------------------------------------------------------

     Program PHONON v.6.7GPU starts on 28Jun2022 at  1:18:37 

     This program is part of the open-source Quantum ESPRESSO suite
     for quantum simulation of materials; please cite
         "P. Giannozzi et al., J. Phys.:Condens. Matter 21 395502 (2009);
         "P. Giannozzi et al., J. Phys.:Condens. Matter 29 465901 (2017);
         "P. Giannozzi et al., J. Chem. Phys. 152 154105 (2020);
          URL http://www.quantum-espresso.org", 
     in publications or presentations arising from this work. More details at
     http://www.quantum-espresso.org/quote

     Parallel version (MPI & OpenMP), running on      24 processor cores
     Number of MPI processes:                24
     Threads/MPI process:                     1

     MPI processes distributed on     1 nodes
     K-points division:     npool     =      24
     Reading input from ph.in

     Reading xml data from directory:

     ./pwscf.save/
     file B.pbe-n-kjpaw_psl.0.1.upf: wavefunction(s)  2P renormalized
     file Mg.pbe-n-kjpaw_psl.0.3.0.upf: wavefunction(s)  3S renormalized

     IMPORTANT: XC functional enforced from input :
     Exchange-correlation= PBE
                           (   1   4   3   4   0   0   0)
     Any further DFT definition will be discarded
     Please, verify this is what you really want


     G-vector sticks info
     --------------------
     sticks:   dense  smooth     PW     G-vecs:    dense   smooth      PW
     Sum         649     313    109                15395     5449    1011

     Using Slab Decomposition


     Check: negative core charge=   -0.000006
     Reading collected, re-writing distributed wavefunctions


     Dynamical matrices for ( 4, 4, 3)  uniform grid of q-points
     With a half shift
     (  12 q-points):
       N         xq(1)         xq(2)         xq(3) 
       1   0.125000000   0.216506351   0.145452854
       2   0.125000000   0.216506351  -0.436358562
       3   0.125000000   0.505181486   0.145452854
       4   0.125000000   0.505181486  -0.436358562
       5   0.125000000  -0.360843918   0.145452854
       6   0.125000000  -0.360843918  -0.436358562
       7   0.125000000  -0.072168784   0.145452854
       8   0.125000000  -0.072168784  -0.436358562
       9   0.375000000   0.649519053   0.145452854
      10   0.375000000   0.649519053  -0.436358562
      11   0.375000000  -0.216506351   0.145452854
      12   0.375000000  -0.216506351  -0.436358562
     Because shifted q grid is used, q2r will not work !

     Saving dvscf to file. Distribute only q points, not irreducible represetations.

     Calculation of q =    0.1250000   0.2165064   0.1454529

     Subspace diagonalization in iterative solution of the eigenvalue problem:
     a serial algorithm will be used

     [opt_tetra]  Optimized tetrahedron method is used.

     G-vector sticks info
     --------------------
     sticks:   dense  smooth     PW     G-vecs:    dense   smooth      PW
     Sum         649     313    121                15395     5449    1131

     Using Slab Decomposition


     Title: 
     Phonon                                                                     


     bravais-lattice index     =            0
     lattice parameter (alat)  =       5.8042  a.u.
     unit-cell volume          =     194.0373 (a.u.)^3
     number of atoms/cell      =            3
     number of atomic types    =            2
     number of electrons       =         8.00
     number of Kohn-Sham states=            8
     kinetic-energy cutoff     =      35.0000  Ry
     charge density cutoff     =     280.0000  Ry
     Exchange-correlation= PBE
                           (   1   4   3   4   0   0   0)

     celldm(1)=   5.804205  celldm(2)=   0.000000  celldm(3)=   0.000000
     celldm(4)=   0.000000  celldm(5)=   0.000000  celldm(6)=   0.000000

     crystal axes: (cart. coord. in units of alat)
               a(1) = (   1.000000   0.000000   0.000000 )  
               a(2) = (  -0.500000   0.866025   0.000000 )  
               a(3) = (   0.000000   0.000000   1.145847 )  

     reciprocal axes: (cart. coord. in units 2 pi/alat)
               b(1) = (  1.000000  0.577350 -0.000000 )  
               b(2) = (  0.000000  1.154701  0.000000 )  
               b(3) = (  0.000000 -0.000000  0.872717 )  


     PseudoPot. # 1 for B  read from file:
     ../../../pseudo/B.pbe-n-kjpaw_psl.0.1.upf
     MD5 check sum: b4345a612e0782cca08559f453f3313f
     Pseudo is Projector augmented-wave + core cor, Zval =  3.0
     Generated using "atomic" code by A. Dal Corso  v.5.0.99 svn rev. 10869
     Shape of augmentation charge: BESSEL
     Using radial grid of 1059 points,  4 beta functions with: 
                l(1) =   0
                l(2) =   0
                l(3) =   1
                l(4) =   1
     Q(r) pseudized with 0 coefficients 


     PseudoPot. # 2 for Mg read from file:
     ../../../pseudo/Mg.pbe-n-kjpaw_psl.0.3.0.upf
     MD5 check sum: 9eaefceb6cf3903db1b93e4e5c6adf9a
     Pseudo is Projector augmented-wave + core cor, Zval =  2.0
     Generated using "atomic" code by A. Dal Corso  v.5.0.99 svn rev. 10869
     Shape of augmentation charge: PSQ
     Using radial grid of 1129 points,  4 beta functions with: 
                l(1) =   0
                l(2) =   0
                l(3) =   1
                l(4) =   1
     Q(r) pseudized with 0 coefficients 


     atomic species   valence    mass     pseudopotential
        B              3.00    10.81100     B ( 1.00)
        Mg             2.00    24.30500     Mg( 1.00)

     24 Sym. Ops., with inversion, found



   Cartesian axes

     site n.     atom                  positions (alat units)
         1           Mg  tau(   1) = (   0.0000000   0.0000000   0.0000000  )
         2           B   tau(   2) = (  -0.0000000   0.5773503   0.5729233  )
         3           B   tau(   3) = (   0.5000000   0.2886751   0.5729233  )

     number of k points=   432 (tetrahedron method)

     Number of k-points >= 100: set verbosity='high' to print them.

     Dense  grid:    15395 G-vectors     FFT dimensions: (  32,  32,  36)

     Smooth grid:     5449 G-vectors     FFT dimensions: (  24,  24,  25)

     Estimated max dynamical RAM per process >       7.22 MB

     Estimated total dynamical RAM >     173.27 MB

     Check: negative core charge=   -0.000006

     The potential is recalculated from file :
     ./_ph0/pwscf.q_1/pwscf.save/charge-density

     Starting wfcs are   12 atomic wfcs
     Checking if some PAW data can be deallocated... 

     Band Structure Calculation
     Davidson diagonalization with overlap
At line 106 of file init_us_2_base.f90
Fortran runtime warning: An array temporary was created
At line 106 of file init_us_2_base.f90
Fortran runtime warning: An array temporary was created
At line 106 of file init_us_2_base.f90
Fortran runtime warning: An array temporary was created
At line 106 of file init_us_2_base.f90
Fortran runtime warning: An array temporary was created
At line 106 of file init_us_2_base.f90
Fortran runtime warning: An array temporary was created
At line 106 of file init_us_2_base.f90
Fortran runtime warning: An array temporary was created
At line 106 of file init_us_2_base.f90
Fortran runtime warning: An array temporary was created
At line 106 of file init_us_2_base.f90
Fortran runtime warning: An array temporary was created
At line 106 of file init_us_2_base.f90
Fortran runtime warning: An array temporary was created
At line 106 of file init_us_2_base.f90
Fortran runtime warning: An array temporary was created
At line 106 of file init_us_2_base.f90
Fortran runtime warning: An array temporary was created
At line 106 of file init_us_2_base.f90
Fortran runtime warning: An array temporary was created
At line 106 of file init_us_2_base.f90
Fortran runtime warning: An array temporary was created
At line 106 of file init_us_2_base.f90
Fortran runtime warning: An array temporary was created
At line 106 of file init_us_2_base.f90
Fortran runtime warning: An array temporary was created
At line 106 of file init_us_2_base.f90
Fortran runtime warning: An array temporary was created
At line 106 of file init_us_2_base.f90
Fortran runtime warning: An array temporary was created
At line 106 of file init_us_2_base.f90
Fortran runtime warning: An array temporary was created
At line 106 of file init_us_2_base.f90
Fortran runtime warning: An array temporary was created
At line 106 of file init_us_2_base.f90
Fortran runtime warning: An array temporary was created
At line 106 of file init_us_2_base.f90
Fortran runtime warning: An array temporary was created
At line 106 of file init_us_2_base.f90
Fortran runtime warning: An array temporary was created
At line 106 of file init_us_2_base.f90
Fortran runtime warning: An array temporary was created
At line 106 of file init_us_2_base.f90
Fortran runtime warning: An array temporary was created
At line 1740 of file mp.f90
Fortran runtime warning: An array temporary was created
At line 1740 of file mp.f90
Fortran runtime warning: An array temporary was created
At line 1740 of file mp.f90
Fortran runtime warning: An array temporary was created
At line 1740 of file mp.f90
Fortran runtime warning: An array temporary was created
At line 1740 of file mp.f90
Fortran runtime warning: An array temporary was created
At line 1740 of file mp.f90
Fortran runtime warning: An array temporary was created
At line 1740 of file mp.f90
Fortran runtime warning: An array temporary was created
At line 1740 of file mp.f90
Fortran runtime warning: An array temporary was created
At line 1740 of file mp.f90
Fortran runtime warning: An array temporary was created
At line 1740 of file mp.f90
Fortran runtime warning: An array temporary was created
At line 1740 of file mp.f90
Fortran runtime warning: An array temporary was created
At line 1740 of file mp.f90
Fortran runtime warning: An array temporary was created
At line 1740 of file mp.f90
Fortran runtime warning: An array temporary was created
At line 1740 of file mp.f90
Fortran runtime warning: An array temporary was created
At line 1740 of file mp.f90
Fortran runtime warning: An array temporary was created
At line 1740 of file mp.f90
Fortran runtime warning: An array temporary was created
At line 1740 of file mp.f90
Fortran runtime warning: An array temporary was created
At line 1740 of file mp.f90
Fortran runtime warning: An array temporary was created
At line 1740 of file mp.f90
Fortran runtime warning: An array temporary was created
At line 1740 of file mp.f90
Fortran runtime warning: An array temporary was created
At line 1740 of file mp.f90
Fortran runtime warning: An array temporary was created
At line 1740 of file mp.f90
Fortran runtime warning: An array temporary was created
At line 1740 of file mp.f90
Fortran runtime warning: An array temporary was created
At line 1740 of file mp.f90
Fortran runtime warning: An array temporary was created
[macloud2:951137] 23 more processes have sent help message help-common-ofi.txt / package_rank failed
[macloud2:951137] Set MCA parameter "orte_base_help_aggregate" to 0 to see all help / error messages
[macloud2:951137] 23 more processes have sent help message help-mpi-btl-openib.txt / error in device init

     ethr =  1.25E-10,  avg # of iterations = 20.1

     total cpu time spent up to now is        3.0 secs

     End of band structure calculation

     Number of k-points >= 100: set verbosity='high' to print the bands.

     the Fermi energy is     7.6604 ev

     Writing output data file ./_ph0/pwscf.q_1/pwscf.save/
 
     [dfpt_tetra]  Dos(E_F)[/Ry] :   0.8845641E+01

     Phonon                                                                     

     bravais-lattice index     =            0
     lattice parameter (alat)  =       5.8042  a.u.
     unit-cell volume          =     194.0373 (a.u.)^3
     number of atoms/cell      =            3
     number of atomic types    =            2
     kinetic-energy cut-off    =      35.0000  Ry
     charge density cut-off    =     280.0000  Ry
     convergence threshold     =      1.0E-15
     beta                      =       0.3000
     number of iterations used =            4
     Exchange-correlation= PBE
                           (   1   4   3   4   0   0   0)


     celldm(1)=    5.80420  celldm(2)=    0.00000  celldm(3)=    0.00000
     celldm(4)=    0.00000  celldm(5)=    0.00000  celldm(6)=    0.00000

     crystal axes: (cart. coord. in units of alat)
               a(1) = (  1.0000  0.0000  0.0000 )  
               a(2) = ( -0.5000  0.8660  0.0000 )  
               a(3) = (  0.0000  0.0000  1.1458 )  

     reciprocal axes: (cart. coord. in units 2 pi/alat)
               b(1) = (  1.0000  0.5774 -0.0000 )  
               b(2) = (  0.0000  1.1547  0.0000 )  
               b(3) = (  0.0000 -0.0000  0.8727 )  


     Atoms inside the unit cell: 

     Cartesian axes

     site n.  atom      mass           positions (alat units)
        1     Mg  24.3050   tau(    1) = (    0.00000    0.00000    0.00000  )
        2     B   10.8110   tau(    2) = (   -0.00000    0.57735    0.57292  )
        3     B   10.8110   tau(    3) = (    0.50000    0.28868    0.57292  )

     Computing dynamical matrix for 
                    q = (   0.1250000   0.2165064   0.1454529 )

      2 Sym.Ops. (no q -> -q+G )


     G cutoff =  238.9372  (  15395 G-vectors)     FFT grid: ( 32, 32, 36)
     G cutoff =  119.4686  (   5449 G-vectors)  smooth grid: ( 24, 24, 25)
     number of k points=   432

     PseudoPot. # 1 for B  read from file:
     ../../../pseudo/B.pbe-n-kjpaw_psl.0.1.upf
     MD5 check sum: b4345a612e0782cca08559f453f3313f
     Pseudo is Projector augmented-wave + core cor, Zval =  3.0
     Generated using "atomic" code by A. Dal Corso  v.5.0.99 svn rev. 10869
     Shape of augmentation charge: BESSEL
     Using radial grid of 1059 points,  4 beta functions with: 
                l(1) =   0
                l(2) =   0
                l(3) =   1
                l(4) =   1
     Q(r) pseudized with 0 coefficients 


     PseudoPot. # 2 for Mg read from file:
     ../../../pseudo/Mg.pbe-n-kjpaw_psl.0.3.0.upf
     MD5 check sum: 9eaefceb6cf3903db1b93e4e5c6adf9a
     Pseudo is Projector augmented-wave + core cor, Zval =  2.0
     Generated using "atomic" code by A. Dal Corso  v.5.0.99 svn rev. 10869
     Shape of augmentation charge: PSQ
     Using radial grid of 1129 points,  4 beta functions with: 
                l(1) =   0
                l(2) =   0
                l(3) =   1
                l(4) =   1
     Q(r) pseudized with 0 coefficients 



     Atomic displacements:
     There are    9 irreducible representations

     Representation     1      1 modes -  To be done

     Representation     2      1 modes -  To be done

     Representation     3      1 modes -  To be done

     Representation     4      1 modes -  To be done

     Representation     5      1 modes -  To be done

     Representation     6      1 modes -  To be done

     Representation     7      1 modes -  To be done

     Representation     8      1 modes -  To be done

     Representation     9      1 modes -  To be done



     Alpha used in Ewald sum =   2.8000
     PHONON       :      8.09s CPU      9.66s WALL



     Representation #   1 mode #   1

     Self-consistent Calculation

      iter #   1 total cpu time :    10.6 secs   av.it.:   3.5
      thresh= 1.000E-02 alpha_mix =  0.300 |ddv_scf|^2 =  1.025E-03

      iter #   2 total cpu time :    12.2 secs   av.it.:   5.4
      thresh= 3.202E-03 alpha_mix =  0.300 |ddv_scf|^2 =  7.323E-03

      iter #   3 total cpu time :    13.9 secs   av.it.:   4.2
      thresh= 8.558E-03 alpha_mix =  0.300 |ddv_scf|^2 =  7.172E-07

      iter #   4 total cpu time :    15.6 secs   av.it.:   6.6
      thresh= 8.469E-05 alpha_mix =  0.300 |ddv_scf|^2 =  6.007E-08

      iter #   5 total cpu time :    17.2 secs   av.it.:   6.4
      thresh= 2.451E-05 alpha_mix =  0.300 |ddv_scf|^2 =  1.783E-08

      iter #   6 total cpu time :    19.3 secs   av.it.:   6.2
      thresh= 1.335E-05 alpha_mix =  0.300 |ddv_scf|^2 =  5.811E-09

      iter #   7 total cpu time :    21.2 secs   av.it.:   4.7
      thresh= 7.623E-06 alpha_mix =  0.300 |ddv_scf|^2 =  2.337E-09

      iter #   8 total cpu time :    22.9 secs   av.it.:   5.7
      thresh= 4.834E-06 alpha_mix =  0.300 |ddv_scf|^2 =  1.220E-10

      iter #   9 total cpu time :    24.4 secs   av.it.:   6.4
      thresh= 1.105E-06 alpha_mix =  0.300 |ddv_scf|^2 =  2.084E-11

      iter #  10 total cpu time :    26.2 secs   av.it.:   5.9
      thresh= 4.565E-07 alpha_mix =  0.300 |ddv_scf|^2 =  1.330E-11

      iter #  11 total cpu time :    28.1 secs   av.it.:   5.8
      thresh= 3.647E-07 alpha_mix =  0.300 |ddv_scf|^2 =  5.629E-13

      iter #  12 total cpu time :    29.6 secs   av.it.:   6.2
      thresh= 7.503E-08 alpha_mix =  0.300 |ddv_scf|^2 =  1.306E-13

      iter #  13 total cpu time :    31.5 secs   av.it.:   6.3
      thresh= 3.614E-08 alpha_mix =  0.300 |ddv_scf|^2 =  1.366E-13

      iter #  14 total cpu time :    32.9 secs   av.it.:   5.2
      thresh= 3.695E-08 alpha_mix =  0.300 |ddv_scf|^2 =  9.872E-15

      iter #  15 total cpu time :    34.3 secs   av.it.:   6.4
      thresh= 9.936E-09 alpha_mix =  0.300 |ddv_scf|^2 =  1.636E-15

      iter #  16 total cpu time :    35.2 secs   av.it.:   4.6
      thresh= 4.045E-09 alpha_mix =  0.300 |ddv_scf|^2 =  2.419E-16

     End of self-consistent calculation

     Convergence has been achieved 


     Representation #   2 mode #   2

     Self-consistent Calculation

      iter #   1 total cpu time :    38.3 secs   av.it.:   2.8
      thresh= 1.000E-02 alpha_mix =  0.300 |ddv_scf|^2 =  3.720E-07

      iter #   2 total cpu time :    40.3 secs   av.it.:   6.4
      thresh= 6.099E-05 alpha_mix =  0.300 |ddv_scf|^2 =  1.322E-07

      iter #   3 total cpu time :    44.6 secs   av.it.:   6.0
      thresh= 3.636E-05 alpha_mix =  0.300 |ddv_scf|^2 =  2.086E-08

      iter #   4 total cpu time :    46.4 secs   av.it.:   6.5
      thresh= 1.444E-05 alpha_mix =  0.300 |ddv_scf|^2 =  8.909E-10

      iter #   5 total cpu time :    47.8 secs   av.it.:   6.9
      thresh= 2.985E-06 alpha_mix =  0.300 |ddv_scf|^2 =  3.120E-11

      iter #   6 total cpu time :    49.2 secs   av.it.:   5.6
      thresh= 5.586E-07 alpha_mix =  0.300 |ddv_scf|^2 =  1.009E-11

      iter #   7 total cpu time :    50.7 secs   av.it.:   6.1
      thresh= 3.176E-07 alpha_mix =  0.300 |ddv_scf|^2 =  1.482E-13

      iter #   8 total cpu time :    52.6 secs   av.it.:   7.1
      thresh= 3.850E-08 alpha_mix =  0.300 |ddv_scf|^2 =  5.673E-15

      iter #   9 total cpu time :    53.7 secs   av.it.:   6.9
      thresh= 7.532E-09 alpha_mix =  0.300 |ddv_scf|^2 =  2.744E-16

     End of self-consistent calculation

     Convergence has been achieved 


     Representation #   3 mode #   3

     Self-consistent Calculation

      iter #   1 total cpu time :    55.9 secs   av.it.:   2.4
      thresh= 1.000E-02 alpha_mix =  0.300 |ddv_scf|^2 =  8.182E-05

      iter #   2 total cpu time :    57.9 secs   av.it.:   5.6
      thresh= 9.045E-04 alpha_mix =  0.300 |ddv_scf|^2 =  6.082E-04

      iter #   3 total cpu time :    59.6 secs   av.it.:   4.2
      thresh= 2.466E-03 alpha_mix =  0.300 |ddv_scf|^2 =  7.421E-08

      iter #   4 total cpu time :    61.6 secs   av.it.:   6.5
      thresh= 2.724E-05 alpha_mix =  0.300 |ddv_scf|^2 =  1.125E-08

      iter #   5 total cpu time :    63.3 secs   av.it.:   5.9
      thresh= 1.061E-05 alpha_mix =  0.300 |ddv_scf|^2 =  3.177E-09

      iter #   6 total cpu time :    65.6 secs   av.it.:   5.8
      thresh= 5.637E-06 alpha_mix =  0.300 |ddv_scf|^2 =  2.459E-10

      iter #   7 total cpu time :    67.3 secs   av.it.:   6.1
      thresh= 1.568E-06 alpha_mix =  0.300 |ddv_scf|^2 =  5.350E-12

      iter #   8 total cpu time :    69.0 secs   av.it.:   6.4
      thresh= 2.313E-07 alpha_mix =  0.300 |ddv_scf|^2 =  1.823E-11

      iter #   9 total cpu time :    70.8 secs   av.it.:   4.4
      thresh= 4.270E-07 alpha_mix =  0.300 |ddv_scf|^2 =  7.001E-13

      iter #  10 total cpu time :    72.6 secs   av.it.:   6.4
      thresh= 8.367E-08 alpha_mix =  0.300 |ddv_scf|^2 =  3.250E-13

      iter #  11 total cpu time :    74.3 secs   av.it.:   5.4
      thresh= 5.701E-08 alpha_mix =  0.300 |ddv_scf|^2 =  9.563E-15

      iter #  12 total cpu time :    76.2 secs   av.it.:   6.5
      thresh= 9.779E-09 alpha_mix =  0.300 |ddv_scf|^2 =  3.681E-15

      iter #  13 total cpu time :    77.7 secs   av.it.:   5.8
      thresh= 6.067E-09 alpha_mix =  0.300 |ddv_scf|^2 =  3.649E-16

     End of self-consistent calculation

     Convergence has been achieved 


     Representation #   4 mode #   4

     Self-consistent Calculation

      iter #   1 total cpu time :    80.8 secs   av.it.:   3.2
      thresh= 1.000E-02 alpha_mix =  0.300 |ddv_scf|^2 =  4.697E-04

      iter #   2 total cpu time :    82.6 secs   av.it.:   5.5
      thresh= 2.167E-03 alpha_mix =  0.300 |ddv_scf|^2 =  3.220E-03

      iter #   3 total cpu time :    84.1 secs   av.it.:   4.2
      thresh= 5.675E-03 alpha_mix =  0.300 |ddv_scf|^2 =  1.990E-06

      iter #   4 total cpu time :    85.4 secs   av.it.:   6.2
      thresh= 1.411E-04 alpha_mix =  0.300 |ddv_scf|^2 =  5.441E-08

      iter #   5 total cpu time :    86.9 secs   av.it.:   6.4
      thresh= 2.333E-05 alpha_mix =  0.300 |ddv_scf|^2 =  2.529E-08

      iter #   6 total cpu time :    88.8 secs   av.it.:   6.1
      thresh= 1.590E-05 alpha_mix =  0.300 |ddv_scf|^2 =  6.568E-09

      iter #   7 total cpu time :    90.7 secs   av.it.:   4.9
      thresh= 8.104E-06 alpha_mix =  0.300 |ddv_scf|^2 =  2.251E-09

      iter #   8 total cpu time :    92.4 secs   av.it.:   6.1
      thresh= 4.744E-06 alpha_mix =  0.300 |ddv_scf|^2 =  4.291E-11

      iter #   9 total cpu time :    94.4 secs   av.it.:   6.1
      thresh= 6.551E-07 alpha_mix =  0.300 |ddv_scf|^2 =  1.124E-11

      iter #  10 total cpu time :    96.2 secs   av.it.:   6.2
      thresh= 3.353E-07 alpha_mix =  0.300 |ddv_scf|^2 =  5.094E-12

      iter #  11 total cpu time :    98.1 secs   av.it.:   5.6
      thresh= 2.257E-07 alpha_mix =  0.300 |ddv_scf|^2 =  5.173E-13

      iter #  12 total cpu time :    99.7 secs   av.it.:   6.3
      thresh= 7.192E-08 alpha_mix =  0.300 |ddv_scf|^2 =  3.833E-14

      iter #  13 total cpu time :   101.7 secs   av.it.:   6.2
      thresh= 1.958E-08 alpha_mix =  0.300 |ddv_scf|^2 =  1.643E-14

      iter #  14 total cpu time :   102.7 secs   av.it.:   5.2
      thresh= 1.282E-08 alpha_mix =  0.300 |ddv_scf|^2 =  5.035E-16

     End of self-consistent calculation

     Convergence has been achieved 


     Representation #   5 mode #   5

     Self-consistent Calculation

      iter #   1 total cpu time :   105.3 secs   av.it.:   2.9
      thresh= 1.000E-02 alpha_mix =  0.300 |ddv_scf|^2 =  9.536E-07

      iter #   2 total cpu time :   107.0 secs   av.it.:   6.3
      thresh= 9.765E-05 alpha_mix =  0.300 |ddv_scf|^2 =  2.011E-07

      iter #   3 total cpu time :   108.8 secs   av.it.:   6.0
      thresh= 4.485E-05 alpha_mix =  0.300 |ddv_scf|^2 =  3.743E-08

      iter #   4 total cpu time :   111.3 secs   av.it.:   6.5
      thresh= 1.935E-05 alpha_mix =  0.300 |ddv_scf|^2 =  2.067E-09

      iter #   5 total cpu time :   113.1 secs   av.it.:   6.7
      thresh= 4.547E-06 alpha_mix =  0.300 |ddv_scf|^2 =  3.897E-11

      iter #   6 total cpu time :   114.8 secs   av.it.:   6.0
      thresh= 6.242E-07 alpha_mix =  0.300 |ddv_scf|^2 =  1.429E-11

      iter #   7 total cpu time :   116.9 secs   av.it.:   6.0
      thresh= 3.780E-07 alpha_mix =  0.300 |ddv_scf|^2 =  2.268E-13

      iter #   8 total cpu time :   118.6 secs   av.it.:   6.2
      thresh= 4.763E-08 alpha_mix =  0.300 |ddv_scf|^2 =  7.801E-14

      iter #   9 total cpu time :   119.7 secs   av.it.:   6.6
      thresh= 2.793E-08 alpha_mix =  0.300 |ddv_scf|^2 =  4.959E-16

     End of self-consistent calculation

     Convergence has been achieved 


     Representation #   6 mode #   6

     Self-consistent Calculation

      iter #   1 total cpu time :   122.1 secs   av.it.:   2.9
      thresh= 1.000E-02 alpha_mix =  0.300 |ddv_scf|^2 =  4.007E-04

      iter #   2 total cpu time :   124.1 secs   av.it.:   5.3
      thresh= 2.002E-03 alpha_mix =  0.300 |ddv_scf|^2 =  2.906E-03

      iter #   3 total cpu time :   125.7 secs   av.it.:   4.2
      thresh= 5.390E-03 alpha_mix =  0.300 |ddv_scf|^2 =  4.366E-08

      iter #   4 total cpu time :   127.2 secs   av.it.:   6.8
      thresh= 2.090E-05 alpha_mix =  0.300 |ddv_scf|^2 =  1.375E-08

      iter #   5 total cpu time :   128.5 secs   av.it.:   5.9
      thresh= 1.172E-05 alpha_mix =  0.300 |ddv_scf|^2 =  2.387E-09

      iter #   6 total cpu time :   129.8 secs   av.it.:   5.8
      thresh= 4.886E-06 alpha_mix =  0.300 |ddv_scf|^2 =  7.556E-11

      iter #   7 total cpu time :   131.3 secs   av.it.:   6.2
      thresh= 8.692E-07 alpha_mix =  0.300 |ddv_scf|^2 =  8.300E-12

      iter #   8 total cpu time :   133.0 secs   av.it.:   6.4
      thresh= 2.881E-07 alpha_mix =  0.300 |ddv_scf|^2 =  1.082E-11

      iter #   9 total cpu time :   134.8 secs   av.it.:   4.9
      thresh= 3.290E-07 alpha_mix =  0.300 |ddv_scf|^2 =  1.893E-12

      iter #  10 total cpu time :   136.4 secs   av.it.:   5.6
      thresh= 1.376E-07 alpha_mix =  0.300 |ddv_scf|^2 =  5.363E-13

      iter #  11 total cpu time :   138.7 secs   av.it.:   5.7
      thresh= 7.324E-08 alpha_mix =  0.300 |ddv_scf|^2 =  1.141E-13

      iter #  12 total cpu time :   140.9 secs   av.it.:   6.0
      thresh= 3.378E-08 alpha_mix =  0.300 |ddv_scf|^2 =  7.103E-15

      iter #  13 total cpu time :   142.7 secs   av.it.:   6.3
      thresh= 8.428E-09 alpha_mix =  0.300 |ddv_scf|^2 =  2.396E-15

      iter #  14 total cpu time :   145.0 secs   av.it.:   6.0
      thresh= 4.895E-09 alpha_mix =  0.300 |ddv_scf|^2 =  1.069E-15

      iter #  15 total cpu time :   146.0 secs   av.it.:   5.5
      thresh= 3.270E-09 alpha_mix =  0.300 |ddv_scf|^2 =  9.698E-16

     End of self-consistent calculation

     Convergence has been achieved 


     Representation #   7 mode #   7

     Self-consistent Calculation

      iter #   1 total cpu time :   149.4 secs   av.it.:   2.9
      thresh= 1.000E-02 alpha_mix =  0.300 |ddv_scf|^2 =  2.250E-06

      iter #   2 total cpu time :   151.6 secs   av.it.:   6.1
      thresh= 1.500E-04 alpha_mix =  0.300 |ddv_scf|^2 =  2.957E-07

      iter #   3 total cpu time :   153.2 secs   av.it.:   5.9
      thresh= 5.438E-05 alpha_mix =  0.300 |ddv_scf|^2 =  4.546E-08

      iter #   4 total cpu time :   155.0 secs   av.it.:   6.5
      thresh= 2.132E-05 alpha_mix =  0.300 |ddv_scf|^2 =  2.867E-09

      iter #   5 total cpu time :   156.5 secs   av.it.:   6.5
      thresh= 5.354E-06 alpha_mix =  0.300 |ddv_scf|^2 =  5.277E-11

      iter #   6 total cpu time :   158.0 secs   av.it.:   5.7
      thresh= 7.264E-07 alpha_mix =  0.300 |ddv_scf|^2 =  2.072E-11

      iter #   7 total cpu time :   160.6 secs   av.it.:   5.8
      thresh= 4.552E-07 alpha_mix =  0.300 |ddv_scf|^2 =  1.880E-13

      iter #   8 total cpu time :   162.5 secs   av.it.:   6.5
      thresh= 4.336E-08 alpha_mix =  0.300 |ddv_scf|^2 =  6.719E-14

      iter #   9 total cpu time :   163.4 secs   av.it.:   6.8
      thresh= 2.592E-08 alpha_mix =  0.300 |ddv_scf|^2 =  1.997E-16

     End of self-consistent calculation

     Convergence has been achieved 


     Representation #   8 mode #   8

     Self-consistent Calculation

      iter #   1 total cpu time :   165.0 secs   av.it.:   2.0
      thresh= 1.000E-02 alpha_mix =  0.300 |ddv_scf|^2 =  8.537E-08

      iter #   2 total cpu time :   166.3 secs   av.it.:   6.2
      thresh= 2.922E-05 alpha_mix =  0.300 |ddv_scf|^2 =  3.610E-08

      iter #   3 total cpu time :   167.6 secs   av.it.:   5.8
      thresh= 1.900E-05 alpha_mix =  0.300 |ddv_scf|^2 =  4.076E-09

      iter #   4 total cpu time :   169.1 secs   av.it.:   6.3
      thresh= 6.384E-06 alpha_mix =  0.300 |ddv_scf|^2 =  3.971E-11

      iter #   5 total cpu time :   171.0 secs   av.it.:   7.0
      thresh= 6.302E-07 alpha_mix =  0.300 |ddv_scf|^2 =  1.130E-11

      iter #   6 total cpu time :   172.7 secs   av.it.:   6.5
      thresh= 3.362E-07 alpha_mix =  0.300 |ddv_scf|^2 =  7.992E-13

      iter #   7 total cpu time :   174.6 secs   av.it.:   6.7
      thresh= 8.940E-08 alpha_mix =  0.300 |ddv_scf|^2 =  4.323E-15

      iter #   8 total cpu time :   177.2 secs   av.it.:   6.4
      thresh= 6.575E-09 alpha_mix =  0.300 |ddv_scf|^2 =  1.742E-15

      iter #   9 total cpu time :   178.3 secs   av.it.:   6.8
      thresh= 4.173E-09 alpha_mix =  0.300 |ddv_scf|^2 =  1.927E-17

     End of self-consistent calculation

     Convergence has been achieved 


     Representation #   9 mode #   9

     Self-consistent Calculation

      iter #   1 total cpu time :   181.1 secs   av.it.:   3.4
      thresh= 1.000E-02 alpha_mix =  0.300 |ddv_scf|^2 =  1.139E-03

      iter #   2 total cpu time :   182.7 secs   av.it.:   5.4
      thresh= 3.374E-03 alpha_mix =  0.300 |ddv_scf|^2 =  8.327E-03

      iter #   3 total cpu time :   184.5 secs   av.it.:   4.2
      thresh= 9.125E-03 alpha_mix =  0.300 |ddv_scf|^2 =  2.926E-07

      iter #   4 total cpu time :   186.3 secs   av.it.:   6.9
      thresh= 5.410E-05 alpha_mix =  0.300 |ddv_scf|^2 =  7.194E-08

      iter #   5 total cpu time :   187.9 secs   av.it.:   6.1
      thresh= 2.682E-05 alpha_mix =  0.300 |ddv_scf|^2 =  1.318E-08

      iter #   6 total cpu time :   190.2 secs   av.it.:   5.8
      thresh= 1.148E-05 alpha_mix =  0.300 |ddv_scf|^2 =  3.334E-09

      iter #   7 total cpu time :   192.5 secs   av.it.:   5.7
      thresh= 5.774E-06 alpha_mix =  0.300 |ddv_scf|^2 =  3.947E-09

      iter #   8 total cpu time :   194.1 secs   av.it.:   5.5
      thresh= 6.282E-06 alpha_mix =  0.300 |ddv_scf|^2 =  4.240E-10

      iter #   9 total cpu time :   195.5 secs   av.it.:   5.3
      thresh= 2.059E-06 alpha_mix =  0.300 |ddv_scf|^2 =  3.212E-11

      iter #  10 total cpu time :   197.8 secs   av.it.:   5.8
      thresh= 5.668E-07 alpha_mix =  0.300 |ddv_scf|^2 =  1.089E-11

      iter #  11 total cpu time :   199.5 secs   av.it.:   5.7
      thresh= 3.299E-07 alpha_mix =  0.300 |ddv_scf|^2 =  7.602E-13

      iter #  12 total cpu time :   201.4 secs   av.it.:   5.9
      thresh= 8.719E-08 alpha_mix =  0.300 |ddv_scf|^2 =  5.433E-14

      iter #  13 total cpu time :   202.9 secs   av.it.:   6.7
      thresh= 2.331E-08 alpha_mix =  0.300 |ddv_scf|^2 =  3.422E-14

      iter #  14 total cpu time :   204.2 secs   av.it.:   4.8
      thresh= 1.850E-08 alpha_mix =  0.300 |ddv_scf|^2 =  1.886E-15

      iter #  15 total cpu time :   205.4 secs   av.it.:   6.4
      thresh= 4.343E-09 alpha_mix =  0.300 |ddv_scf|^2 =  1.175E-16

     End of self-consistent calculation

     Convergence has been achieved 

     Number of q in the star =   12
     List of q in the star:
          1   0.125000000   0.216506351   0.145452854
          2   0.125000000   0.216506351  -0.145452854
          3  -0.125000000  -0.216506351  -0.145452854
          4  -0.125000000   0.216506351   0.145452854
          5   0.250000000   0.000000000   0.145452854
          6  -0.250000000  -0.000000000   0.145452854
          7   0.125000000  -0.216506351   0.145452854
          8   0.250000000   0.000000000  -0.145452854
          9  -0.250000000  -0.000000000  -0.145452854
         10  -0.125000000   0.216506351  -0.145452854
         11   0.125000000  -0.216506351  -0.145452854
         12  -0.125000000  -0.216506351   0.145452854

     Diagonalizing the dynamical matrix

     q = (    0.125000000   0.216506351   0.145452854 ) 

 **************************************************************************
     freq (    1) =       5.978315 [THz] =     199.415117 [cm-1]
     freq (    2) =       6.149582 [THz] =     205.127978 [cm-1]
     freq (    3) =       8.043169 [THz] =     268.291241 [cm-1]
     freq (    4) =      11.718825 [THz] =     390.897931 [cm-1]
     freq (    5) =      12.105225 [THz] =     403.786842 [cm-1]
     freq (    6) =      13.860626 [THz] =     462.340733 [cm-1]
     freq (    7) =      19.153973 [THz] =     638.907755 [cm-1]
     freq (    8) =      19.448988 [THz] =     648.748410 [cm-1]
     freq (    9) =      20.401973 [THz] =     680.536576 [cm-1]
 **************************************************************************

     Calculation of q =    0.1250000   0.2165064  -0.4363586
     [opt_tetra]  Optimized tetrahedron method is used.

     G-vector sticks info
     --------------------
     sticks:   dense  smooth     PW     G-vecs:    dense   smooth      PW
     Sum         649     313    121                15395     5449    1287

     Using Slab Decomposition


     Title: 
     Phonon                                                                     


     bravais-lattice index     =            0
     lattice parameter (alat)  =       5.8042  a.u.
     unit-cell volume          =     194.0373 (a.u.)^3
     number of atoms/cell      =            3
     number of atomic types    =            2
     number of electrons       =         8.00
     number of Kohn-Sham states=            8
     kinetic-energy cutoff     =      35.0000  Ry
     charge density cutoff     =     280.0000  Ry
     Exchange-correlation= PBE
                           (   1   4   3   4   0   0   0)

     celldm(1)=   5.804205  celldm(2)=   0.000000  celldm(3)=   0.000000
     celldm(4)=   0.000000  celldm(5)=   0.000000  celldm(6)=   0.000000

     crystal axes: (cart. coord. in units of alat)
               a(1) = (   1.000000   0.000000   0.000000 )  
               a(2) = (  -0.500000   0.866025   0.000000 )  
               a(3) = (   0.000000   0.000000   1.145847 )  

     reciprocal axes: (cart. coord. in units 2 pi/alat)
               b(1) = (  1.000000  0.577350 -0.000000 )  
               b(2) = (  0.000000  1.154701  0.000000 )  
               b(3) = (  0.000000 -0.000000  0.872717 )  


     PseudoPot. # 1 for B  read from file:
     ../../../pseudo/B.pbe-n-kjpaw_psl.0.1.upf
     MD5 check sum: b4345a612e0782cca08559f453f3313f
     Pseudo is Projector augmented-wave + core cor, Zval =  3.0
     Generated using "atomic" code by A. Dal Corso  v.5.0.99 svn rev. 10869
     Shape of augmentation charge: BESSEL
     Using radial grid of 1059 points,  4 beta functions with: 
                l(1) =   0
                l(2) =   0
                l(3) =   1
                l(4) =   1
     Q(r) pseudized with 0 coefficients 


     PseudoPot. # 2 for Mg read from file:
     ../../../pseudo/Mg.pbe-n-kjpaw_psl.0.3.0.upf
     MD5 check sum: 9eaefceb6cf3903db1b93e4e5c6adf9a
     Pseudo is Projector augmented-wave + core cor, Zval =  2.0
     Generated using "atomic" code by A. Dal Corso  v.5.0.99 svn rev. 10869
     Shape of augmentation charge: PSQ
     Using radial grid of 1129 points,  4 beta functions with: 
                l(1) =   0
                l(2) =   0
                l(3) =   1
                l(4) =   1
     Q(r) pseudized with 0 coefficients 


     atomic species   valence    mass     pseudopotential
        B              3.00    10.81100     B ( 1.00)
        Mg             2.00    24.30500     Mg( 1.00)

     24 Sym. Ops., with inversion, found



   Cartesian axes

     site n.     atom                  positions (alat units)
         1           Mg  tau(   1) = (   0.0000000   0.0000000   0.0000000  )
         2           B   tau(   2) = (  -0.0000000   0.5773503   0.5729233  )
         3           B   tau(   3) = (   0.5000000   0.2886751   0.5729233  )

     number of k points=   288 (tetrahedron method)

     Number of k-points >= 100: set verbosity='high' to print them.

     Dense  grid:    15395 G-vectors     FFT dimensions: (  32,  32,  36)

     Smooth grid:     5449 G-vectors     FFT dimensions: (  24,  24,  25)

     Estimated max dynamical RAM per process >       7.23 MB

     Estimated total dynamical RAM >     173.52 MB

     Check: negative core charge=   -0.000006

     The potential is recalculated from file :
     ./_ph0/pwscf.q_2/pwscf.save/charge-density

     Starting wfcs are   12 atomic wfcs
     Checking if some PAW data can be deallocated... 

     Band Structure Calculation
     Davidson diagonalization with overlap

     ethr =  1.25E-10,  avg # of iterations = 19.7

     total cpu time spent up to now is        5.9 secs

     End of band structure calculation

     Number of k-points >= 100: set verbosity='high' to print the bands.

     the Fermi energy is     7.6604 ev

     Writing output data file ./_ph0/pwscf.q_2/pwscf.save/
 
     [dfpt_tetra]  Dos(E_F)[/Ry] :   0.8845641E+01

     Phonon                                                                     

     bravais-lattice index     =            0
     lattice parameter (alat)  =       5.8042  a.u.
     unit-cell volume          =     194.0373 (a.u.)^3
     number of atoms/cell      =            3
     number of atomic types    =            2
     kinetic-energy cut-off    =      35.0000  Ry
     charge density cut-off    =     280.0000  Ry
     convergence threshold     =      1.0E-15
     beta                      =       0.3000
     number of iterations used =            4
     Exchange-correlation= PBE
                           (   1   4   3   4   0   0   0)


     celldm(1)=    5.80420  celldm(2)=    0.00000  celldm(3)=    0.00000
     celldm(4)=    0.00000  celldm(5)=    0.00000  celldm(6)=    0.00000

     crystal axes: (cart. coord. in units of alat)
               a(1) = (  1.0000  0.0000  0.0000 )  
               a(2) = ( -0.5000  0.8660  0.0000 )  
               a(3) = (  0.0000  0.0000  1.1458 )  

     reciprocal axes: (cart. coord. in units 2 pi/alat)
               b(1) = (  1.0000  0.5774 -0.0000 )  
               b(2) = (  0.0000  1.1547  0.0000 )  
               b(3) = (  0.0000 -0.0000  0.8727 )  


     Atoms inside the unit cell: 

     Cartesian axes

     site n.  atom      mass           positions (alat units)
        1     Mg  24.3050   tau(    1) = (    0.00000    0.00000    0.00000  )
        2     B   10.8110   tau(    2) = (   -0.00000    0.57735    0.57292  )
        3     B   10.8110   tau(    3) = (    0.50000    0.28868    0.57292  )

     Computing dynamical matrix for 
                    q = (   0.1250000   0.2165064  -0.4363586 )

      4 Sym.Ops. (no q -> -q+G )


     G cutoff =  238.9372  (  15395 G-vectors)     FFT grid: ( 32, 32, 36)
     G cutoff =  119.4686  (   5449 G-vectors)  smooth grid: ( 24, 24, 25)
     number of k points=   288

     PseudoPot. # 1 for B  read from file:
     ../../../pseudo/B.pbe-n-kjpaw_psl.0.1.upf
     MD5 check sum: b4345a612e0782cca08559f453f3313f
     Pseudo is Projector augmented-wave + core cor, Zval =  3.0
     Generated using "atomic" code by A. Dal Corso  v.5.0.99 svn rev. 10869
     Shape of augmentation charge: BESSEL
     Using radial grid of 1059 points,  4 beta functions with: 
                l(1) =   0
                l(2) =   0
                l(3) =   1
                l(4) =   1
     Q(r) pseudized with 0 coefficients 


     PseudoPot. # 2 for Mg read from file:
     ../../../pseudo/Mg.pbe-n-kjpaw_psl.0.3.0.upf
     MD5 check sum: 9eaefceb6cf3903db1b93e4e5c6adf9a
     Pseudo is Projector augmented-wave + core cor, Zval =  2.0
     Generated using "atomic" code by A. Dal Corso  v.5.0.99 svn rev. 10869
     Shape of augmentation charge: PSQ
     Using radial grid of 1129 points,  4 beta functions with: 
                l(1) =   0
                l(2) =   0
                l(3) =   1
                l(4) =   1
     Q(r) pseudized with 0 coefficients 



     Atomic displacements:
     There are    9 irreducible representations

     Representation     1      1 modes -  To be done

     Representation     2      1 modes -  To be done

     Representation     3      1 modes -  To be done

     Representation     4      1 modes -  To be done

     Representation     5      1 modes -  To be done

     Representation     6      1 modes -  To be done

     Representation     7      1 modes -  To be done

     Representation     8      1 modes -  To be done

     Representation     9      1 modes -  To be done



     Alpha used in Ewald sum =   2.8000
     PHONON       :   1m21.42s CPU   3m34.74s WALL



     Representation #   1 mode #   1

     Self-consistent Calculation

      iter #   1 total cpu time :   215.3 secs   av.it.:   2.9
      thresh= 1.000E-02 alpha_mix =  0.300 |ddv_scf|^2 =  9.206E-06

      iter #   2 total cpu time :   216.6 secs   av.it.:   5.6
      thresh= 3.034E-04 alpha_mix =  0.300 |ddv_scf|^2 =  4.319E-06

      iter #   3 total cpu time :   218.3 secs   av.it.:   5.1
      thresh= 2.078E-04 alpha_mix =  0.300 |ddv_scf|^2 =  1.731E-07

      iter #   4 total cpu time :   220.1 secs   av.it.:   5.9
      thresh= 4.160E-05 alpha_mix =  0.300 |ddv_scf|^2 =  1.168E-08

      iter #   5 total cpu time :   221.7 secs   av.it.:   5.6
      thresh= 1.081E-05 alpha_mix =  0.300 |ddv_scf|^2 =  5.764E-10

      iter #   6 total cpu time :   223.0 secs   av.it.:   5.8
      thresh= 2.401E-06 alpha_mix =  0.300 |ddv_scf|^2 =  1.090E-10

      iter #   7 total cpu time :   224.4 secs   av.it.:   5.9
      thresh= 1.044E-06 alpha_mix =  0.300 |ddv_scf|^2 =  3.770E-12

      iter #   8 total cpu time :   226.4 secs   av.it.:   5.3
      thresh= 1.942E-07 alpha_mix =  0.300 |ddv_scf|^2 =  1.742E-12

      iter #   9 total cpu time :   228.0 secs   av.it.:   5.4
      thresh= 1.320E-07 alpha_mix =  0.300 |ddv_scf|^2 =  6.281E-13

      iter #  10 total cpu time :   229.4 secs   av.it.:   5.9
      thresh= 7.925E-08 alpha_mix =  0.300 |ddv_scf|^2 =  6.714E-15

      iter #  11 total cpu time :   230.3 secs   av.it.:   6.3
      thresh= 8.194E-09 alpha_mix =  0.300 |ddv_scf|^2 =  5.751E-16

     End of self-consistent calculation

     Convergence has been achieved 


     Representation #   2 mode #   2

     Self-consistent Calculation

      iter #   1 total cpu time :   232.3 secs   av.it.:   2.6
      thresh= 1.000E-02 alpha_mix =  0.300 |ddv_scf|^2 =  2.294E-05

      iter #   2 total cpu time :   233.7 secs   av.it.:   5.3
      thresh= 4.789E-04 alpha_mix =  0.300 |ddv_scf|^2 =  1.066E-05

      iter #   3 total cpu time :   235.3 secs   av.it.:   5.1
      thresh= 3.265E-04 alpha_mix =  0.300 |ddv_scf|^2 =  2.119E-08

      iter #   4 total cpu time :   236.9 secs   av.it.:   5.8
      thresh= 1.456E-05 alpha_mix =  0.300 |ddv_scf|^2 =  2.053E-09

      iter #   5 total cpu time :   238.5 secs   av.it.:   5.4
      thresh= 4.531E-06 alpha_mix =  0.300 |ddv_scf|^2 =  1.921E-10

      iter #   6 total cpu time :   239.8 secs   av.it.:   5.8
      thresh= 1.386E-06 alpha_mix =  0.300 |ddv_scf|^2 =  3.286E-12

      iter #   7 total cpu time :   241.3 secs   av.it.:   6.1
      thresh= 1.813E-07 alpha_mix =  0.300 |ddv_scf|^2 =  1.560E-13

      iter #   8 total cpu time :   242.7 secs   av.it.:   5.7
      thresh= 3.950E-08 alpha_mix =  0.300 |ddv_scf|^2 =  1.666E-14

      iter #   9 total cpu time :   244.5 secs   av.it.:   6.2
      thresh= 1.291E-08 alpha_mix =  0.300 |ddv_scf|^2 =  1.078E-15

      iter #  10 total cpu time :   245.6 secs   av.it.:   5.7
      thresh= 3.283E-09 alpha_mix =  0.300 |ddv_scf|^2 =  2.123E-16

     End of self-consistent calculation

     Convergence has been achieved 


     Representation #   3 mode #   3

     Self-consistent Calculation

      iter #   1 total cpu time :   250.9 secs   av.it.:   2.6
      thresh= 1.000E-02 alpha_mix =  0.300 |ddv_scf|^2 =  3.403E-07

      iter #   2 total cpu time :   252.2 secs   av.it.:   5.7
      thresh= 5.833E-05 alpha_mix =  0.300 |ddv_scf|^2 =  1.311E-07

      iter #   3 total cpu time :   253.5 secs   av.it.:   5.6
      thresh= 3.621E-05 alpha_mix =  0.300 |ddv_scf|^2 =  1.430E-08

      iter #   4 total cpu time :   254.9 secs   av.it.:   5.9
      thresh= 1.196E-05 alpha_mix =  0.300 |ddv_scf|^2 =  8.517E-10

      iter #   5 total cpu time :   256.3 secs   av.it.:   6.0
      thresh= 2.918E-06 alpha_mix =  0.300 |ddv_scf|^2 =  3.875E-11

      iter #   6 total cpu time :   258.2 secs   av.it.:   5.7
      thresh= 6.225E-07 alpha_mix =  0.300 |ddv_scf|^2 =  1.153E-11

      iter #   7 total cpu time :   259.6 secs   av.it.:   5.7
      thresh= 3.395E-07 alpha_mix =  0.300 |ddv_scf|^2 =  7.660E-14

      iter #   8 total cpu time :   260.9 secs   av.it.:   5.9
      thresh= 2.768E-08 alpha_mix =  0.300 |ddv_scf|^2 =  2.824E-14

      iter #   9 total cpu time :   261.7 secs   av.it.:   6.1
      thresh= 1.680E-08 alpha_mix =  0.300 |ddv_scf|^2 =  2.108E-16

     End of self-consistent calculation

     Convergence has been achieved 


     Representation #   4 mode #   4

     Self-consistent Calculation

      iter #   1 total cpu time :   264.1 secs   av.it.:   3.3
      thresh= 1.000E-02 alpha_mix =  0.300 |ddv_scf|^2 =  9.721E-05

      iter #   2 total cpu time :   266.7 secs   av.it.:   5.1
      thresh= 9.859E-04 alpha_mix =  0.300 |ddv_scf|^2 =  1.679E-06

      iter #   3 total cpu time :   268.8 secs   av.it.:   5.3
      thresh= 1.296E-04 alpha_mix =  0.300 |ddv_scf|^2 =  6.611E-08

      iter #   4 total cpu time :   270.7 secs   av.it.:   5.7
      thresh= 2.571E-05 alpha_mix =  0.300 |ddv_scf|^2 =  4.761E-10

      iter #   5 total cpu time :   272.5 secs   av.it.:   5.7
      thresh= 2.182E-06 alpha_mix =  0.300 |ddv_scf|^2 =  1.569E-10

      iter #   6 total cpu time :   274.1 secs   av.it.:   5.9
      thresh= 1.253E-06 alpha_mix =  0.300 |ddv_scf|^2 =  3.483E-12

      iter #   7 total cpu time :   276.1 secs   av.it.:   6.1
      thresh= 1.866E-07 alpha_mix =  0.300 |ddv_scf|^2 =  1.022E-14

      iter #   8 total cpu time :   278.2 secs   av.it.:   6.5
      thresh= 1.011E-08 alpha_mix =  0.300 |ddv_scf|^2 =  1.293E-15

      iter #   9 total cpu time :   279.0 secs   av.it.:   6.0
      thresh= 3.595E-09 alpha_mix =  0.300 |ddv_scf|^2 =  2.387E-16

     End of self-consistent calculation

     Convergence has been achieved 


     Representation #   5 mode #   5

     Self-consistent Calculation

      iter #   1 total cpu time :   280.9 secs   av.it.:   2.4
      thresh= 1.000E-02 alpha_mix =  0.300 |ddv_scf|^2 =  4.091E-07

      iter #   2 total cpu time :   283.8 secs   av.it.:   5.5
      thresh= 6.396E-05 alpha_mix =  0.300 |ddv_scf|^2 =  1.679E-07

      iter #   3 total cpu time :   285.3 secs   av.it.:   5.5
      thresh= 4.098E-05 alpha_mix =  0.300 |ddv_scf|^2 =  6.852E-09

      iter #   4 total cpu time :   287.1 secs   av.it.:   5.5
      thresh= 8.278E-06 alpha_mix =  0.300 |ddv_scf|^2 =  1.787E-10

      iter #   5 total cpu time :   288.6 secs   av.it.:   6.0
      thresh= 1.337E-06 alpha_mix =  0.300 |ddv_scf|^2 =  2.212E-11

      iter #   6 total cpu time :   290.3 secs   av.it.:   5.7
      thresh= 4.704E-07 alpha_mix =  0.300 |ddv_scf|^2 =  4.275E-14

      iter #   7 total cpu time :   291.9 secs   av.it.:   6.3
      thresh= 2.068E-08 alpha_mix =  0.300 |ddv_scf|^2 =  5.057E-15

      iter #   8 total cpu time :   293.1 secs   av.it.:   6.1
      thresh= 7.111E-09 alpha_mix =  0.300 |ddv_scf|^2 =  3.521E-17

     End of self-consistent calculation

     Convergence has been achieved 


     Representation #   6 mode #   6

     Self-consistent Calculation

      iter #   1 total cpu time :   296.0 secs   av.it.:   2.2
      thresh= 1.000E-02 alpha_mix =  0.300 |ddv_scf|^2 =  3.379E-06

      iter #   2 total cpu time :   297.4 secs   av.it.:   5.3
      thresh= 1.838E-04 alpha_mix =  0.300 |ddv_scf|^2 =  9.937E-08

      iter #   3 total cpu time :   298.7 secs   av.it.:   5.2
      thresh= 3.152E-05 alpha_mix =  0.300 |ddv_scf|^2 =  1.815E-08

      iter #   4 total cpu time :   300.1 secs   av.it.:   5.4
      thresh= 1.347E-05 alpha_mix =  0.300 |ddv_scf|^2 =  7.359E-11

      iter #   5 total cpu time :   301.3 secs   av.it.:   5.8
      thresh= 8.578E-07 alpha_mix =  0.300 |ddv_scf|^2 =  1.163E-11

      iter #   6 total cpu time :   302.7 secs   av.it.:   6.0
      thresh= 3.410E-07 alpha_mix =  0.300 |ddv_scf|^2 =  1.347E-13

      iter #   7 total cpu time :   304.5 secs   av.it.:   5.9
      thresh= 3.670E-08 alpha_mix =  0.300 |ddv_scf|^2 =  1.732E-14

      iter #   8 total cpu time :   305.3 secs   av.it.:   6.1
      thresh= 1.316E-08 alpha_mix =  0.300 |ddv_scf|^2 =  3.149E-16

     End of self-consistent calculation

     Convergence has been achieved 


     Representation #   7 mode #   7

     Self-consistent Calculation

      iter #   1 total cpu time :   307.6 secs   av.it.:   2.9
      thresh= 1.000E-02 alpha_mix =  0.300 |ddv_scf|^2 =  2.278E-06

      iter #   2 total cpu time :   309.3 secs   av.it.:   5.7
      thresh= 1.509E-04 alpha_mix =  0.300 |ddv_scf|^2 =  3.403E-07

      iter #   3 total cpu time :   310.8 secs   av.it.:   5.6
      thresh= 5.833E-05 alpha_mix =  0.300 |ddv_scf|^2 =  4.406E-08

      iter #   4 total cpu time :   312.3 secs   av.it.:   6.0
      thresh= 2.099E-05 alpha_mix =  0.300 |ddv_scf|^2 =  2.903E-09

      iter #   5 total cpu time :   315.0 secs   av.it.:   5.8
      thresh= 5.388E-06 alpha_mix =  0.300 |ddv_scf|^2 =  5.618E-11

      iter #   6 total cpu time :   316.9 secs   av.it.:   5.4
      thresh= 7.496E-07 alpha_mix =  0.300 |ddv_scf|^2 =  2.159E-11

      iter #   7 total cpu time :   318.2 secs   av.it.:   5.0
      thresh= 4.647E-07 alpha_mix =  0.300 |ddv_scf|^2 =  7.276E-14

      iter #   8 total cpu time :   320.4 secs   av.it.:   5.9
      thresh= 2.697E-08 alpha_mix =  0.300 |ddv_scf|^2 =  2.736E-14

      iter #   9 total cpu time :   321.3 secs   av.it.:   6.0
      thresh= 1.654E-08 alpha_mix =  0.300 |ddv_scf|^2 =  6.488E-17

     End of self-consistent calculation

     Convergence has been achieved 


     Representation #   8 mode #   8

     Self-consistent Calculation

      iter #   1 total cpu time :   324.5 secs   av.it.:   3.0
      thresh= 1.000E-02 alpha_mix =  0.300 |ddv_scf|^2 =  5.640E-05

      iter #   2 total cpu time :   326.8 secs   av.it.:   5.3
      thresh= 7.510E-04 alpha_mix =  0.300 |ddv_scf|^2 =  2.396E-05

      iter #   3 total cpu time :   328.0 secs   av.it.:   5.0
      thresh= 4.895E-04 alpha_mix =  0.300 |ddv_scf|^2 =  1.811E-07

      iter #   4 total cpu time :   329.5 secs   av.it.:   5.9
      thresh= 4.255E-05 alpha_mix =  0.300 |ddv_scf|^2 =  1.124E-08

      iter #   5 total cpu time :   330.6 secs   av.it.:   5.2
      thresh= 1.060E-05 alpha_mix =  0.300 |ddv_scf|^2 =  2.288E-09

      iter #   6 total cpu time :   332.1 secs   av.it.:   5.8
      thresh= 4.783E-06 alpha_mix =  0.300 |ddv_scf|^2 =  6.761E-11

      iter #   7 total cpu time :   333.9 secs   av.it.:   6.0
      thresh= 8.223E-07 alpha_mix =  0.300 |ddv_scf|^2 =  1.084E-12

      iter #   8 total cpu time :   335.4 secs   av.it.:   5.6
      thresh= 1.041E-07 alpha_mix =  0.300 |ddv_scf|^2 =  3.263E-13

      iter #   9 total cpu time :   337.2 secs   av.it.:   6.1
      thresh= 5.712E-08 alpha_mix =  0.300 |ddv_scf|^2 =  4.204E-14

      iter #  10 total cpu time :   338.0 secs   av.it.:   6.1
      thresh= 2.050E-08 alpha_mix =  0.300 |ddv_scf|^2 =  7.430E-16

     End of self-consistent calculation

     Convergence has been achieved 


     Representation #   9 mode #   9

     Self-consistent Calculation

      iter #   1 total cpu time :   341.5 secs   av.it.:   1.8
      thresh= 1.000E-02 alpha_mix =  0.300 |ddv_scf|^2 =  7.209E-08

      iter #   2 total cpu time :   343.6 secs   av.it.:   5.4
      thresh= 2.685E-05 alpha_mix =  0.300 |ddv_scf|^2 =  3.498E-08

      iter #   3 total cpu time :   345.8 secs   av.it.:   5.3
      thresh= 1.870E-05 alpha_mix =  0.300 |ddv_scf|^2 =  1.152E-10

      iter #   4 total cpu time :   347.4 secs   av.it.:   6.1
      thresh= 1.073E-06 alpha_mix =  0.300 |ddv_scf|^2 =  1.768E-11

      iter #   5 total cpu time :   349.2 secs   av.it.:   5.8
      thresh= 4.204E-07 alpha_mix =  0.300 |ddv_scf|^2 =  1.567E-12

      iter #   6 total cpu time :   351.2 secs   av.it.:   5.8
      thresh= 1.252E-07 alpha_mix =  0.300 |ddv_scf|^2 =  9.869E-15

      iter #   7 total cpu time :   352.7 secs   av.it.:   5.6
      thresh= 9.934E-09 alpha_mix =  0.300 |ddv_scf|^2 =  2.688E-15

      iter #   8 total cpu time :   353.4 secs   av.it.:   5.8
      thresh= 5.185E-09 alpha_mix =  0.300 |ddv_scf|^2 =  2.205E-17

     End of self-consistent calculation

     Convergence has been achieved 

     Number of q in the star =    6
     List of q in the star:
          1   0.125000000   0.216506351  -0.436358562
          2  -0.125000000   0.216506351  -0.436358562
          3   0.250000000   0.000000000  -0.436358562
          4  -0.250000000  -0.000000000  -0.436358562
          5   0.125000000  -0.216506351  -0.436358562
          6  -0.125000000  -0.216506351   0.436358562

     Diagonalizing the dynamical matrix

     q = (    0.125000000   0.216506351  -0.436358562 ) 

 **************************************************************************
     freq (    1) =       7.263067 [THz] =     242.269841 [cm-1]
     freq (    2) =       7.587499 [THz] =     253.091714 [cm-1]
     freq (    3) =       8.634553 [THz] =     288.017670 [cm-1]
     freq (    4) =      10.962946 [THz] =     365.684507 [cm-1]
     freq (    5) =      12.736149 [THz] =     424.832198 [cm-1]
     freq (    6) =      13.799917 [THz] =     460.315681 [cm-1]
     freq (    7) =      18.963882 [THz] =     632.567018 [cm-1]
     freq (    8) =      19.288477 [THz] =     643.394326 [cm-1]
     freq (    9) =      21.244830 [THz] =     708.651248 [cm-1]
 **************************************************************************

     Calculation of q =    0.1250000   0.5051815   0.1454529
     [opt_tetra]  Optimized tetrahedron method is used.

     G-vector sticks info
     --------------------
     sticks:   dense  smooth     PW     G-vecs:    dense   smooth      PW
     Sum         649     313    121                15395     5449    1287

     Using Slab Decomposition


     Title: 
     Phonon                                                                     


     bravais-lattice index     =            0
     lattice parameter (alat)  =       5.8042  a.u.
     unit-cell volume          =     194.0373 (a.u.)^3
     number of atoms/cell      =            3
     number of atomic types    =            2
     number of electrons       =         8.00
     number of Kohn-Sham states=            8
     kinetic-energy cutoff     =      35.0000  Ry
     charge density cutoff     =     280.0000  Ry
     Exchange-correlation= PBE
                           (   1   4   3   4   0   0   0)

     celldm(1)=   5.804205  celldm(2)=   0.000000  celldm(3)=   0.000000
     celldm(4)=   0.000000  celldm(5)=   0.000000  celldm(6)=   0.000000

     crystal axes: (cart. coord. in units of alat)
               a(1) = (   1.000000   0.000000   0.000000 )  
               a(2) = (  -0.500000   0.866025   0.000000 )  
               a(3) = (   0.000000   0.000000   1.145847 )  

     reciprocal axes: (cart. coord. in units 2 pi/alat)
               b(1) = (  1.000000  0.577350 -0.000000 )  
               b(2) = (  0.000000  1.154701  0.000000 )  
               b(3) = (  0.000000 -0.000000  0.872717 )  


     PseudoPot. # 1 for B  read from file:
     ../../../pseudo/B.pbe-n-kjpaw_psl.0.1.upf
     MD5 check sum: b4345a612e0782cca08559f453f3313f
     Pseudo is Projector augmented-wave + core cor, Zval =  3.0
     Generated using "atomic" code by A. Dal Corso  v.5.0.99 svn rev. 10869
     Shape of augmentation charge: BESSEL
     Using radial grid of 1059 points,  4 beta functions with: 
                l(1) =   0
                l(2) =   0
                l(3) =   1
                l(4) =   1
     Q(r) pseudized with 0 coefficients 


     PseudoPot. # 2 for Mg read from file:
     ../../../pseudo/Mg.pbe-n-kjpaw_psl.0.3.0.upf
     MD5 check sum: 9eaefceb6cf3903db1b93e4e5c6adf9a
     Pseudo is Projector augmented-wave + core cor, Zval =  2.0
     Generated using "atomic" code by A. Dal Corso  v.5.0.99 svn rev. 10869
     Shape of augmentation charge: PSQ
     Using radial grid of 1129 points,  4 beta functions with: 
                l(1) =   0
                l(2) =   0
                l(3) =   1
                l(4) =   1
     Q(r) pseudized with 0 coefficients 


     atomic species   valence    mass     pseudopotential
        B              3.00    10.81100     B ( 1.00)
        Mg             2.00    24.30500     Mg( 1.00)

     24 Sym. Ops., with inversion, found



   Cartesian axes

     site n.     atom                  positions (alat units)
         1           Mg  tau(   1) = (   0.0000000   0.0000000   0.0000000  )
         2           B   tau(   2) = (  -0.0000000   0.5773503   0.5729233  )
         3           B   tau(   3) = (   0.5000000   0.2886751   0.5729233  )

     number of k points=   768 (tetrahedron method)

     Number of k-points >= 100: set verbosity='high' to print them.

     Dense  grid:    15395 G-vectors     FFT dimensions: (  32,  32,  36)

     Smooth grid:     5449 G-vectors     FFT dimensions: (  24,  24,  25)

     Estimated max dynamical RAM per process >       7.23 MB

     Estimated total dynamical RAM >     173.56 MB

     Check: negative core charge=   -0.000006

     The potential is recalculated from file :
     ./_ph0/pwscf.q_3/pwscf.save/charge-density

     Starting wfcs are   12 atomic wfcs
     Checking if some PAW data can be deallocated... 

     Band Structure Calculation
     Davidson diagonalization with overlap

     ethr =  1.25E-10,  avg # of iterations = 20.3

     total cpu time spent up to now is       10.8 secs

     End of band structure calculation

     Number of k-points >= 100: set verbosity='high' to print the bands.

     the Fermi energy is     7.6604 ev

     Writing output data file ./_ph0/pwscf.q_3/pwscf.save/
 
     [dfpt_tetra]  Dos(E_F)[/Ry] :   0.8845641E+01

     Phonon                                                                     

     bravais-lattice index     =            0
     lattice parameter (alat)  =       5.8042  a.u.
     unit-cell volume          =     194.0373 (a.u.)^3
     number of atoms/cell      =            3
     number of atomic types    =            2
     kinetic-energy cut-off    =      35.0000  Ry
     charge density cut-off    =     280.0000  Ry
     convergence threshold     =      1.0E-15
     beta                      =       0.3000
     number of iterations used =            4
     Exchange-correlation= PBE
                           (   1   4   3   4   0   0   0)


     celldm(1)=    5.80420  celldm(2)=    0.00000  celldm(3)=    0.00000
     celldm(4)=    0.00000  celldm(5)=    0.00000  celldm(6)=    0.00000

     crystal axes: (cart. coord. in units of alat)
               a(1) = (  1.0000  0.0000  0.0000 )  
               a(2) = ( -0.5000  0.8660  0.0000 )  
               a(3) = (  0.0000  0.0000  1.1458 )  

     reciprocal axes: (cart. coord. in units 2 pi/alat)
               b(1) = (  1.0000  0.5774 -0.0000 )  
               b(2) = (  0.0000  1.1547  0.0000 )  
               b(3) = (  0.0000 -0.0000  0.8727 )  


     Atoms inside the unit cell: 

     Cartesian axes

     site n.  atom      mass           positions (alat units)
        1     Mg  24.3050   tau(    1) = (    0.00000    0.00000    0.00000  )
        2     B   10.8110   tau(    2) = (   -0.00000    0.57735    0.57292  )
        3     B   10.8110   tau(    3) = (    0.50000    0.28868    0.57292  )

     Computing dynamical matrix for 
                    q = (   0.1250000   0.5051815   0.1454529 )

     No symmetry!

     G cutoff =  238.9372  (  15395 G-vectors)     FFT grid: ( 32, 32, 36)
     G cutoff =  119.4686  (   5449 G-vectors)  smooth grid: ( 24, 24, 25)
     number of k points=   768

     PseudoPot. # 1 for B  read from file:
     ../../../pseudo/B.pbe-n-kjpaw_psl.0.1.upf
     MD5 check sum: b4345a612e0782cca08559f453f3313f
     Pseudo is Projector augmented-wave + core cor, Zval =  3.0
     Generated using "atomic" code by A. Dal Corso  v.5.0.99 svn rev. 10869
     Shape of augmentation charge: BESSEL
     Using radial grid of 1059 points,  4 beta functions with: 
                l(1) =   0
                l(2) =   0
                l(3) =   1
                l(4) =   1
     Q(r) pseudized with 0 coefficients 


     PseudoPot. # 2 for Mg read from file:
     ../../../pseudo/Mg.pbe-n-kjpaw_psl.0.3.0.upf
     MD5 check sum: 9eaefceb6cf3903db1b93e4e5c6adf9a
     Pseudo is Projector augmented-wave + core cor, Zval =  2.0
     Generated using "atomic" code by A. Dal Corso  v.5.0.99 svn rev. 10869
     Shape of augmentation charge: PSQ
     Using radial grid of 1129 points,  4 beta functions with: 
                l(1) =   0
                l(2) =   0
                l(3) =   1
                l(4) =   1
     Q(r) pseudized with 0 coefficients 



     Atomic displacements:
     There are    9 irreducible representations

     Representation     1      1 modes -  To be done

     Representation     2      1 modes -  To be done

     Representation     3      1 modes -  To be done

     Representation     4      1 modes -  To be done

     Representation     5      1 modes -  To be done

     Representation     6      1 modes -  To be done

     Representation     7      1 modes -  To be done

     Representation     8      1 modes -  To be done

     Representation     9      1 modes -  To be done



     Alpha used in Ewald sum =   2.8000
     PHONON       :   2m13.11s CPU   6m 4.76s WALL



     Representation #   1 mode #   1

     Self-consistent Calculation

      iter #   1 total cpu time :   365.6 secs   av.it.:   3.1
      thresh= 1.000E-02 alpha_mix =  0.300 |ddv_scf|^2 =  3.052E-05

      iter #   2 total cpu time :   367.1 secs   av.it.:   5.7
      thresh= 5.524E-04 alpha_mix =  0.300 |ddv_scf|^2 =  2.115E-06

      iter #   3 total cpu time :   368.7 secs   av.it.:   6.0
      thresh= 1.454E-04 alpha_mix =  0.300 |ddv_scf|^2 =  9.546E-08

      iter #   4 total cpu time :   370.3 secs   av.it.:   6.2
      thresh= 3.090E-05 alpha_mix =  0.300 |ddv_scf|^2 =  3.012E-08

      iter #   5 total cpu time :   371.9 secs   av.it.:   6.7
      thresh= 1.736E-05 alpha_mix =  0.300 |ddv_scf|^2 =  2.458E-09

      iter #   6 total cpu time :   373.8 secs   av.it.:   7.0
      thresh= 4.958E-06 alpha_mix =  0.300 |ddv_scf|^2 =  1.085E-10

      iter #   7 total cpu time :   375.4 secs   av.it.:   6.3
      thresh= 1.042E-06 alpha_mix =  0.300 |ddv_scf|^2 =  3.301E-11

      iter #   8 total cpu time :   377.1 secs   av.it.:   6.8
      thresh= 5.745E-07 alpha_mix =  0.300 |ddv_scf|^2 =  2.516E-12

      iter #   9 total cpu time :   378.8 secs   av.it.:   6.9
      thresh= 1.586E-07 alpha_mix =  0.300 |ddv_scf|^2 =  7.076E-14

      iter #  10 total cpu time :   380.4 secs   av.it.:   6.6
      thresh= 2.660E-08 alpha_mix =  0.300 |ddv_scf|^2 =  1.232E-14

      iter #  11 total cpu time :   382.0 secs   av.it.:   6.9
      thresh= 1.110E-08 alpha_mix =  0.300 |ddv_scf|^2 =  2.840E-15

      iter #  12 total cpu time :   383.1 secs   av.it.:   7.0
      thresh= 5.329E-09 alpha_mix =  0.300 |ddv_scf|^2 =  3.401E-16

     End of self-consistent calculation

     Convergence has been achieved 


     Representation #   2 mode #   2

     Self-consistent Calculation

      iter #   1 total cpu time :   384.8 secs   av.it.:   2.0
      thresh= 1.000E-02 alpha_mix =  0.300 |ddv_scf|^2 =  5.144E-07

      iter #   2 total cpu time :   387.4 secs   av.it.:   6.3
      thresh= 7.172E-05 alpha_mix =  0.300 |ddv_scf|^2 =  6.634E-08

      iter #   3 total cpu time :   389.0 secs   av.it.:   5.8
      thresh= 2.576E-05 alpha_mix =  0.300 |ddv_scf|^2 =  1.820E-08

      iter #   4 total cpu time :   390.8 secs   av.it.:   6.2
      thresh= 1.349E-05 alpha_mix =  0.300 |ddv_scf|^2 =  2.459E-09

      iter #   5 total cpu time :   392.3 secs   av.it.:   6.1
      thresh= 4.959E-06 alpha_mix =  0.300 |ddv_scf|^2 =  1.653E-10

      iter #   6 total cpu time :   394.0 secs   av.it.:   6.6
      thresh= 1.286E-06 alpha_mix =  0.300 |ddv_scf|^2 =  4.959E-12

      iter #   7 total cpu time :   395.7 secs   av.it.:   6.7
      thresh= 2.227E-07 alpha_mix =  0.300 |ddv_scf|^2 =  1.073E-12

      iter #   8 total cpu time :   398.9 secs   av.it.:   6.7
      thresh= 1.036E-07 alpha_mix =  0.300 |ddv_scf|^2 =  1.403E-13

      iter #   9 total cpu time :   400.6 secs   av.it.:   6.8
      thresh= 3.746E-08 alpha_mix =  0.300 |ddv_scf|^2 =  6.726E-15

      iter #  10 total cpu time :   402.4 secs   av.it.:   6.2
      thresh= 8.201E-09 alpha_mix =  0.300 |ddv_scf|^2 =  1.633E-15

      iter #  11 total cpu time :   403.6 secs   av.it.:   6.4
      thresh= 4.041E-09 alpha_mix =  0.300 |ddv_scf|^2 =  5.480E-16

     End of self-consistent calculation

     Convergence has been achieved 


     Representation #   3 mode #   3

     Self-consistent Calculation

      iter #   1 total cpu time :   406.3 secs   av.it.:   3.0
      thresh= 1.000E-02 alpha_mix =  0.300 |ddv_scf|^2 =  3.386E-06

      iter #   2 total cpu time :   407.9 secs   av.it.:   6.5
      thresh= 1.840E-04 alpha_mix =  0.300 |ddv_scf|^2 =  3.700E-07

      iter #   3 total cpu time :   409.4 secs   av.it.:   6.4
      thresh= 6.083E-05 alpha_mix =  0.300 |ddv_scf|^2 =  7.249E-08

      iter #   4 total cpu time :   411.0 secs   av.it.:   6.4
      thresh= 2.692E-05 alpha_mix =  0.300 |ddv_scf|^2 =  1.643E-08

      iter #   5 total cpu time :   412.6 secs   av.it.:   6.5
      thresh= 1.282E-05 alpha_mix =  0.300 |ddv_scf|^2 =  3.907E-09

      iter #   6 total cpu time :   414.2 secs   av.it.:   6.8
      thresh= 6.251E-06 alpha_mix =  0.300 |ddv_scf|^2 =  2.000E-10

      iter #   7 total cpu time :   415.8 secs   av.it.:   7.1
      thresh= 1.414E-06 alpha_mix =  0.300 |ddv_scf|^2 =  1.930E-11

      iter #   8 total cpu time :   417.4 secs   av.it.:   6.9
      thresh= 4.393E-07 alpha_mix =  0.300 |ddv_scf|^2 =  3.697E-12

      iter #   9 total cpu time :   419.0 secs   av.it.:   6.7
      thresh= 1.923E-07 alpha_mix =  0.300 |ddv_scf|^2 =  1.235E-13

      iter #  10 total cpu time :   420.6 secs   av.it.:   7.0
      thresh= 3.515E-08 alpha_mix =  0.300 |ddv_scf|^2 =  1.641E-14

      iter #  11 total cpu time :   422.3 secs   av.it.:   6.6
      thresh= 1.281E-08 alpha_mix =  0.300 |ddv_scf|^2 =  5.132E-15

      iter #  12 total cpu time :   423.6 secs   av.it.:   7.1
      thresh= 7.164E-09 alpha_mix =  0.300 |ddv_scf|^2 =  7.503E-16

     End of self-consistent calculation

     Convergence has been achieved 


     Representation #   4 mode #   4

     Self-consistent Calculation

      iter #   1 total cpu time :   425.5 secs   av.it.:   3.0
      thresh= 1.000E-02 alpha_mix =  0.300 |ddv_scf|^2 =  5.006E-06

      iter #   2 total cpu time :   427.2 secs   av.it.:   6.5
      thresh= 2.237E-04 alpha_mix =  0.300 |ddv_scf|^2 =  5.073E-07

      iter #   3 total cpu time :   428.7 secs   av.it.:   6.4
      thresh= 7.123E-05 alpha_mix =  0.300 |ddv_scf|^2 =  1.182E-07

      iter #   4 total cpu time :   430.6 secs   av.it.:   6.6
      thresh= 3.438E-05 alpha_mix =  0.300 |ddv_scf|^2 =  2.070E-08

      iter #   5 total cpu time :   432.8 secs   av.it.:   6.6
      thresh= 1.439E-05 alpha_mix =  0.300 |ddv_scf|^2 =  4.213E-09

      iter #   6 total cpu time :   434.5 secs   av.it.:   6.7
      thresh= 6.491E-06 alpha_mix =  0.300 |ddv_scf|^2 =  1.071E-10

      iter #   7 total cpu time :   436.2 secs   av.it.:   7.0
      thresh= 1.035E-06 alpha_mix =  0.300 |ddv_scf|^2 =  1.800E-11

      iter #   8 total cpu time :   438.1 secs   av.it.:   6.9
      thresh= 4.242E-07 alpha_mix =  0.300 |ddv_scf|^2 =  2.427E-12

      iter #   9 total cpu time :   439.8 secs   av.it.:   6.7
      thresh= 1.558E-07 alpha_mix =  0.300 |ddv_scf|^2 =  1.498E-13

      iter #  10 total cpu time :   442.2 secs   av.it.:   6.8
      thresh= 3.870E-08 alpha_mix =  0.300 |ddv_scf|^2 =  2.025E-14

      iter #  11 total cpu time :   443.9 secs   av.it.:   6.7
      thresh= 1.423E-08 alpha_mix =  0.300 |ddv_scf|^2 =  3.252E-15

      iter #  12 total cpu time :   445.1 secs   av.it.:   7.1
      thresh= 5.702E-09 alpha_mix =  0.300 |ddv_scf|^2 =  6.190E-16

     End of self-consistent calculation

     Convergence has been achieved 


     Representation #   5 mode #   5

     Self-consistent Calculation

      iter #   1 total cpu time :   447.0 secs   av.it.:   3.0
      thresh= 1.000E-02 alpha_mix =  0.300 |ddv_scf|^2 =  5.519E-06

      iter #   2 total cpu time :   448.6 secs   av.it.:   6.4
      thresh= 2.349E-04 alpha_mix =  0.300 |ddv_scf|^2 =  6.032E-07

      iter #   3 total cpu time :   450.1 secs   av.it.:   6.2
      thresh= 7.767E-05 alpha_mix =  0.300 |ddv_scf|^2 =  1.309E-07

      iter #   4 total cpu time :   451.7 secs   av.it.:   6.7
      thresh= 3.619E-05 alpha_mix =  0.300 |ddv_scf|^2 =  1.446E-08

      iter #   5 total cpu time :   453.2 secs   av.it.:   6.1
      thresh= 1.202E-05 alpha_mix =  0.300 |ddv_scf|^2 =  3.223E-09

      iter #   6 total cpu time :   454.8 secs   av.it.:   6.7
      thresh= 5.677E-06 alpha_mix =  0.300 |ddv_scf|^2 =  9.809E-11

      iter #   7 total cpu time :   456.4 secs   av.it.:   7.1
      thresh= 9.904E-07 alpha_mix =  0.300 |ddv_scf|^2 =  1.071E-11

      iter #   8 total cpu time :   458.0 secs   av.it.:   6.9
      thresh= 3.272E-07 alpha_mix =  0.300 |ddv_scf|^2 =  1.934E-12

      iter #   9 total cpu time :   460.4 secs   av.it.:   6.8
      thresh= 1.391E-07 alpha_mix =  0.300 |ddv_scf|^2 =  8.598E-14

      iter #  10 total cpu time :   462.1 secs   av.it.:   6.8
      thresh= 2.932E-08 alpha_mix =  0.300 |ddv_scf|^2 =  1.440E-14

      iter #  11 total cpu time :   464.5 secs   av.it.:   6.9
      thresh= 1.200E-08 alpha_mix =  0.300 |ddv_scf|^2 =  1.815E-15

      iter #  12 total cpu time :   465.7 secs   av.it.:   6.8
      thresh= 4.260E-09 alpha_mix =  0.300 |ddv_scf|^2 =  5.277E-16

     End of self-consistent calculation

     Convergence has been achieved 


     Representation #   6 mode #   6

     Self-consistent Calculation

      iter #   1 total cpu time :   468.5 secs   av.it.:   2.5
      thresh= 1.000E-02 alpha_mix =  0.300 |ddv_scf|^2 =  6.188E-06

      iter #   2 total cpu time :   470.2 secs   av.it.:   6.0
      thresh= 2.488E-04 alpha_mix =  0.300 |ddv_scf|^2 =  5.275E-07

      iter #   3 total cpu time :   471.8 secs   av.it.:   5.9
      thresh= 7.263E-05 alpha_mix =  0.300 |ddv_scf|^2 =  2.005E-08

      iter #   4 total cpu time :   473.4 secs   av.it.:   6.1
      thresh= 1.416E-05 alpha_mix =  0.300 |ddv_scf|^2 =  6.233E-09

      iter #   5 total cpu time :   475.0 secs   av.it.:   6.4
      thresh= 7.895E-06 alpha_mix =  0.300 |ddv_scf|^2 =  5.553E-10

      iter #   6 total cpu time :   476.6 secs   av.it.:   6.5
      thresh= 2.356E-06 alpha_mix =  0.300 |ddv_scf|^2 =  3.678E-12

      iter #   7 total cpu time :   478.2 secs   av.it.:   6.7
      thresh= 1.918E-07 alpha_mix =  0.300 |ddv_scf|^2 =  1.516E-12

      iter #   8 total cpu time :   479.7 secs   av.it.:   7.0
      thresh= 1.231E-07 alpha_mix =  0.300 |ddv_scf|^2 =  6.430E-14

      iter #   9 total cpu time :   481.3 secs   av.it.:   7.0
      thresh= 2.536E-08 alpha_mix =  0.300 |ddv_scf|^2 =  3.301E-15

      iter #  10 total cpu time :   482.5 secs   av.it.:   6.5
      thresh= 5.746E-09 alpha_mix =  0.300 |ddv_scf|^2 =  4.942E-16

     End of self-consistent calculation

     Convergence has been achieved 


     Representation #   7 mode #   7

     Self-consistent Calculation

      iter #   1 total cpu time :   484.4 secs   av.it.:   3.0
      thresh= 1.000E-02 alpha_mix =  0.300 |ddv_scf|^2 =  7.054E-06

      iter #   2 total cpu time :   485.9 secs   av.it.:   6.1
      thresh= 2.656E-04 alpha_mix =  0.300 |ddv_scf|^2 =  5.716E-07

      iter #   3 total cpu time :   487.5 secs   av.it.:   6.3
      thresh= 7.561E-05 alpha_mix =  0.300 |ddv_scf|^2 =  1.277E-07

      iter #   4 total cpu time :   489.1 secs   av.it.:   6.5
      thresh= 3.573E-05 alpha_mix =  0.300 |ddv_scf|^2 =  1.961E-08

      iter #   5 total cpu time :   490.7 secs   av.it.:   6.5
      thresh= 1.400E-05 alpha_mix =  0.300 |ddv_scf|^2 =  4.057E-09

      iter #   6 total cpu time :   492.3 secs   av.it.:   6.8
      thresh= 6.369E-06 alpha_mix =  0.300 |ddv_scf|^2 =  1.805E-10

      iter #   7 total cpu time :   494.8 secs   av.it.:   7.2
      thresh= 1.344E-06 alpha_mix =  0.300 |ddv_scf|^2 =  1.475E-11

      iter #   8 total cpu time :   497.0 secs   av.it.:   6.8
      thresh= 3.840E-07 alpha_mix =  0.300 |ddv_scf|^2 =  3.497E-12

      iter #   9 total cpu time :   499.0 secs   av.it.:   6.7
      thresh= 1.870E-07 alpha_mix =  0.300 |ddv_scf|^2 =  4.199E-14

      iter #  10 total cpu time :   500.7 secs   av.it.:   6.9
      thresh= 2.049E-08 alpha_mix =  0.300 |ddv_scf|^2 =  1.094E-14

      iter #  11 total cpu time :   502.9 secs   av.it.:   6.7
      thresh= 1.046E-08 alpha_mix =  0.300 |ddv_scf|^2 =  1.933E-15

      iter #  12 total cpu time :   504.3 secs   av.it.:   7.3
      thresh= 4.396E-09 alpha_mix =  0.300 |ddv_scf|^2 =  1.803E-16

     End of self-consistent calculation

     Convergence has been achieved 


     Representation #   8 mode #   8

     Self-consistent Calculation

      iter #   1 total cpu time :   506.2 secs   av.it.:   2.0
      thresh= 1.000E-02 alpha_mix =  0.300 |ddv_scf|^2 =  8.164E-07

      iter #   2 total cpu time :   507.9 secs   av.it.:   6.5
      thresh= 9.036E-05 alpha_mix =  0.300 |ddv_scf|^2 =  8.693E-08

      iter #   3 total cpu time :   509.5 secs   av.it.:   5.8
      thresh= 2.948E-05 alpha_mix =  0.300 |ddv_scf|^2 =  1.905E-08

      iter #   4 total cpu time :   511.1 secs   av.it.:   5.9
      thresh= 1.380E-05 alpha_mix =  0.300 |ddv_scf|^2 =  4.187E-09

      iter #   5 total cpu time :   512.9 secs   av.it.:   6.3
      thresh= 6.471E-06 alpha_mix =  0.300 |ddv_scf|^2 =  1.055E-10

      iter #   6 total cpu time :   514.5 secs   av.it.:   7.1
      thresh= 1.027E-06 alpha_mix =  0.300 |ddv_scf|^2 =  4.635E-12

      iter #   7 total cpu time :   516.2 secs   av.it.:   6.4
      thresh= 2.153E-07 alpha_mix =  0.300 |ddv_scf|^2 =  1.637E-12

      iter #   8 total cpu time :   517.8 secs   av.it.:   7.0
      thresh= 1.279E-07 alpha_mix =  0.300 |ddv_scf|^2 =  1.089E-13

      iter #   9 total cpu time :   519.6 secs   av.it.:   7.0
      thresh= 3.300E-08 alpha_mix =  0.300 |ddv_scf|^2 =  3.208E-15

      iter #  10 total cpu time :   520.8 secs   av.it.:   7.1
      thresh= 5.664E-09 alpha_mix =  0.300 |ddv_scf|^2 =  5.990E-16

     End of self-consistent calculation

     Convergence has been achieved 


     Representation #   9 mode #   9

     Self-consistent Calculation

      iter #   1 total cpu time :   522.8 secs   av.it.:   3.1
      thresh= 1.000E-02 alpha_mix =  0.300 |ddv_scf|^2 =  3.366E-05

      iter #   2 total cpu time :   524.6 secs   av.it.:   5.6
      thresh= 5.802E-04 alpha_mix =  0.300 |ddv_scf|^2 =  2.217E-06

      iter #   3 total cpu time :   526.2 secs   av.it.:   6.0
      thresh= 1.489E-04 alpha_mix =  0.300 |ddv_scf|^2 =  1.109E-07

      iter #   4 total cpu time :   527.9 secs   av.it.:   6.1
      thresh= 3.330E-05 alpha_mix =  0.300 |ddv_scf|^2 =  2.871E-08

      iter #   5 total cpu time :   530.0 secs   av.it.:   6.5
      thresh= 1.694E-05 alpha_mix =  0.300 |ddv_scf|^2 =  4.074E-09

      iter #   6 total cpu time :   531.6 secs   av.it.:   6.8
      thresh= 6.383E-06 alpha_mix =  0.300 |ddv_scf|^2 =  1.243E-10

      iter #   7 total cpu time :   533.2 secs   av.it.:   6.6
      thresh= 1.115E-06 alpha_mix =  0.300 |ddv_scf|^2 =  3.811E-11

      iter #   8 total cpu time :   534.9 secs   av.it.:   6.7
      thresh= 6.173E-07 alpha_mix =  0.300 |ddv_scf|^2 =  2.795E-12

      iter #   9 total cpu time :   536.6 secs   av.it.:   6.9
      thresh= 1.672E-07 alpha_mix =  0.300 |ddv_scf|^2 =  8.900E-14

      iter #  10 total cpu time :   538.3 secs   av.it.:   6.6
      thresh= 2.983E-08 alpha_mix =  0.300 |ddv_scf|^2 =  1.868E-14

      iter #  11 total cpu time :   539.9 secs   av.it.:   6.9
      thresh= 1.367E-08 alpha_mix =  0.300 |ddv_scf|^2 =  3.734E-15

      iter #  12 total cpu time :   541.1 secs   av.it.:   7.1
      thresh= 6.110E-09 alpha_mix =  0.300 |ddv_scf|^2 =  6.029E-16

     End of self-consistent calculation

     Convergence has been achieved 

     Number of q in the star =   24
     List of q in the star:
          1   0.125000000   0.505181486   0.145452854
          2   0.375000000   0.360843918   0.145452854
          3   0.125000000   0.505181486  -0.145452854
          4   0.375000000   0.360843918  -0.145452854
          5  -0.375000000   0.360843918   0.145452854
          6   0.500000000   0.144337567   0.145452854
          7  -0.500000000  -0.144337567   0.145452854
          8   0.375000000  -0.360843918   0.145452854
          9  -0.375000000  -0.360843918  -0.145452854
         10   0.500000000  -0.144337567  -0.145452854
         11  -0.500000000   0.144337567  -0.145452854
         12  -0.125000000   0.505181486  -0.145452854
         13  -0.125000000  -0.505181486  -0.145452854
         14   0.125000000  -0.505181486  -0.145452854
         15   0.125000000  -0.505181486   0.145452854
         16  -0.125000000   0.505181486   0.145452854
         17   0.375000000  -0.360843918  -0.145452854
         18  -0.500000000  -0.144337567  -0.145452854
         19   0.500000000   0.144337567  -0.145452854
         20  -0.375000000   0.360843918  -0.145452854
         21  -0.125000000  -0.505181486   0.145452854
         22  -0.500000000   0.144337567   0.145452854
         23   0.500000000  -0.144337567   0.145452854
         24  -0.375000000  -0.360843918   0.145452854

     Diagonalizing the dynamical matrix

     q = (    0.125000000   0.505181486   0.145452854 ) 

 **************************************************************************
     freq (    1) =       7.824241 [THz] =     260.988574 [cm-1]
     freq (    2) =       7.930720 [THz] =     264.540358 [cm-1]
     freq (    3) =       9.574462 [THz] =     319.369673 [cm-1]
     freq (    4) =      13.282171 [THz] =     443.045548 [cm-1]
     freq (    5) =      15.133773 [THz] =     504.808315 [cm-1]
     freq (    6) =      16.560180 [THz] =     552.388138 [cm-1]
     freq (    7) =      20.892471 [THz] =     696.897829 [cm-1]
     freq (    8) =      22.307940 [THz] =     744.112782 [cm-1]
     freq (    9) =      23.366130 [THz] =     779.410189 [cm-1]
 **************************************************************************

     Calculation of q =    0.1250000   0.5051815  -0.4363586
     [opt_tetra]  Optimized tetrahedron method is used.

     G-vector sticks info
     --------------------
     sticks:   dense  smooth     PW     G-vecs:    dense   smooth      PW
     Sum         649     313    121                15395     5449    1347

     Using Slab Decomposition


[...]



     Atomic displacements:
     There are    9 irreducible representations

     Representation     1      1 modes -  To be done

     Representation     2      1 modes -  To be done

     Representation     3      1 modes -  To be done

     Representation     4      1 modes -  To be done

     Representation     5      1 modes -  To be done

     Representation     6      1 modes -  To be done

     Representation     7      1 modes -  To be done

     Representation     8      1 modes -  To be done

     Representation     9      1 modes -  To be done



     Alpha used in Ewald sum =   2.8000
     PHONON       :  13m51.96s CPU  28m14.94s WALL



     Representation #   1 mode #   1

     Self-consistent Calculation

      iter #   1 total cpu time :  1695.5 secs   av.it.:   2.8
      thresh= 1.000E-02 alpha_mix =  0.300 |ddv_scf|^2 =  9.554E-07

      iter #   2 total cpu time :  1696.7 secs   av.it.:   5.5
      thresh= 9.774E-05 alpha_mix =  0.300 |ddv_scf|^2 =  2.833E-07

      iter #   3 total cpu time :  1697.8 secs   av.it.:   5.7
      thresh= 5.322E-05 alpha_mix =  0.300 |ddv_scf|^2 =  1.572E-08

      iter #   4 total cpu time :  1699.0 secs   av.it.:   5.5
      thresh= 1.254E-05 alpha_mix =  0.300 |ddv_scf|^2 =  1.954E-10

      iter #   5 total cpu time :  1700.1 secs   av.it.:   5.5
      thresh= 1.398E-06 alpha_mix =  0.300 |ddv_scf|^2 =  6.734E-11

      iter #   6 total cpu time :  1701.4 secs   av.it.:   5.1
      thresh= 8.206E-07 alpha_mix =  0.300 |ddv_scf|^2 =  6.406E-14

      iter #   7 total cpu time :  1702.7 secs   av.it.:   6.6
      thresh= 2.531E-08 alpha_mix =  0.300 |ddv_scf|^2 =  9.238E-15

      iter #   8 total cpu time :  1703.4 secs   av.it.:   6.3
      thresh= 9.611E-09 alpha_mix =  0.300 |ddv_scf|^2 =  9.774E-17

     End of self-consistent calculation

     Convergence has been achieved 


     Representation #   2 mode #   2

     Self-consistent Calculation

      iter #   1 total cpu time :  1705.1 secs   av.it.:   2.3
      thresh= 1.000E-02 alpha_mix =  0.300 |ddv_scf|^2 =  2.860E-06

      iter #   2 total cpu time :  1706.2 secs   av.it.:   5.5
      thresh= 1.691E-04 alpha_mix =  0.300 |ddv_scf|^2 =  1.580E-07

      iter #   3 total cpu time :  1707.4 secs   av.it.:   5.5
      thresh= 3.975E-05 alpha_mix =  0.300 |ddv_scf|^2 =  1.864E-08

      iter #   4 total cpu time :  1708.5 secs   av.it.:   5.4
      thresh= 1.365E-05 alpha_mix =  0.300 |ddv_scf|^2 =  4.337E-09

      iter #   5 total cpu time :  1709.7 secs   av.it.:   5.8
      thresh= 6.585E-06 alpha_mix =  0.300 |ddv_scf|^2 =  1.146E-10

      iter #   6 total cpu time :  1711.0 secs   av.it.:   6.3
      thresh= 1.070E-06 alpha_mix =  0.300 |ddv_scf|^2 =  2.238E-12

      iter #   7 total cpu time :  1712.1 secs   av.it.:   5.6
      thresh= 1.496E-07 alpha_mix =  0.300 |ddv_scf|^2 =  9.903E-13

      iter #   8 total cpu time :  1713.4 secs   av.it.:   5.8
      thresh= 9.951E-08 alpha_mix =  0.300 |ddv_scf|^2 =  2.499E-14

      iter #   9 total cpu time :  1714.5 secs   av.it.:   6.0
      thresh= 1.581E-08 alpha_mix =  0.300 |ddv_scf|^2 =  1.815E-15

      iter #  10 total cpu time :  1715.2 secs   av.it.:   6.2
      thresh= 4.261E-09 alpha_mix =  0.300 |ddv_scf|^2 =  4.618E-16

     End of self-consistent calculation

     Convergence has been achieved 


     Representation #   3 mode #   3

     Self-consistent Calculation

      iter #   1 total cpu time :  1716.8 secs   av.it.:   3.0
      thresh= 1.000E-02 alpha_mix =  0.300 |ddv_scf|^2 =  2.081E-05

      iter #   2 total cpu time :  1718.0 secs   av.it.:   5.4
      thresh= 4.562E-04 alpha_mix =  0.300 |ddv_scf|^2 =  9.892E-07

      iter #   3 total cpu time :  1719.4 secs   av.it.:   5.7
      thresh= 9.946E-05 alpha_mix =  0.300 |ddv_scf|^2 =  1.025E-07

      iter #   4 total cpu time :  1720.8 secs   av.it.:   5.5
      thresh= 3.201E-05 alpha_mix =  0.300 |ddv_scf|^2 =  2.215E-08

      iter #   5 total cpu time :  1722.0 secs   av.it.:   6.0
      thresh= 1.488E-05 alpha_mix =  0.300 |ddv_scf|^2 =  1.650E-09

      iter #   6 total cpu time :  1723.3 secs   av.it.:   6.1
      thresh= 4.062E-06 alpha_mix =  0.300 |ddv_scf|^2 =  4.612E-11

      iter #   7 total cpu time :  1724.4 secs   av.it.:   4.9
      thresh= 6.791E-07 alpha_mix =  0.300 |ddv_scf|^2 =  2.040E-11

      iter #   8 total cpu time :  1725.6 secs   av.it.:   5.4
      thresh= 4.516E-07 alpha_mix =  0.300 |ddv_scf|^2 =  1.040E-13

      iter #   9 total cpu time :  1726.9 secs   av.it.:   6.4
      thresh= 3.224E-08 alpha_mix =  0.300 |ddv_scf|^2 =  3.454E-14

      iter #  10 total cpu time :  1729.3 secs   av.it.:   6.0
      thresh= 1.858E-08 alpha_mix =  0.300 |ddv_scf|^2 =  2.483E-15

      iter #  11 total cpu time :  1730.1 secs   av.it.:   5.9
      thresh= 4.983E-09 alpha_mix =  0.300 |ddv_scf|^2 =  6.909E-16

     End of self-consistent calculation

     Convergence has been achieved 


     Representation #   4 mode #   4

     Self-consistent Calculation

      iter #   1 total cpu time :  1731.6 secs   av.it.:   2.9
      thresh= 1.000E-02 alpha_mix =  0.300 |ddv_scf|^2 =  1.024E-05

      iter #   2 total cpu time :  1732.7 secs   av.it.:   5.4
      thresh= 3.200E-04 alpha_mix =  0.300 |ddv_scf|^2 =  4.964E-07

      iter #   3 total cpu time :  1733.9 secs   av.it.:   5.8
      thresh= 7.045E-05 alpha_mix =  0.300 |ddv_scf|^2 =  6.030E-08

      iter #   4 total cpu time :  1735.1 secs   av.it.:   6.0
      thresh= 2.456E-05 alpha_mix =  0.300 |ddv_scf|^2 =  4.790E-09

      iter #   5 total cpu time :  1736.3 secs   av.it.:   6.2
      thresh= 6.921E-06 alpha_mix =  0.300 |ddv_scf|^2 =  8.111E-11

      iter #   6 total cpu time :  1737.4 secs   av.it.:   6.1
      thresh= 9.006E-07 alpha_mix =  0.300 |ddv_scf|^2 =  1.753E-11

      iter #   7 total cpu time :  1738.8 secs   av.it.:   5.9
      thresh= 4.187E-07 alpha_mix =  0.300 |ddv_scf|^2 =  2.173E-13

      iter #   8 total cpu time :  1740.0 secs   av.it.:   6.0
      thresh= 4.661E-08 alpha_mix =  0.300 |ddv_scf|^2 =  8.372E-14

      iter #   9 total cpu time :  1740.7 secs   av.it.:   6.1
      thresh= 2.893E-08 alpha_mix =  0.300 |ddv_scf|^2 =  1.949E-16

     End of self-consistent calculation

     Convergence has been achieved 


     Representation #   5 mode #   5

     Self-consistent Calculation

      iter #   1 total cpu time :  1742.4 secs   av.it.:   2.9
      thresh= 1.000E-02 alpha_mix =  0.300 |ddv_scf|^2 =  1.024E-05

      iter #   2 total cpu time :  1743.5 secs   av.it.:   5.4
      thresh= 3.200E-04 alpha_mix =  0.300 |ddv_scf|^2 =  4.964E-07

      iter #   3 total cpu time :  1744.6 secs   av.it.:   5.8
      thresh= 7.045E-05 alpha_mix =  0.300 |ddv_scf|^2 =  6.030E-08

      iter #   4 total cpu time :  1745.8 secs   av.it.:   6.0
      thresh= 2.456E-05 alpha_mix =  0.300 |ddv_scf|^2 =  4.790E-09

      iter #   5 total cpu time :  1747.1 secs   av.it.:   6.2
      thresh= 6.921E-06 alpha_mix =  0.300 |ddv_scf|^2 =  8.111E-11

      iter #   6 total cpu time :  1748.4 secs   av.it.:   6.1
      thresh= 9.006E-07 alpha_mix =  0.300 |ddv_scf|^2 =  1.753E-11

      iter #   7 total cpu time :  1749.9 secs   av.it.:   5.9
      thresh= 4.187E-07 alpha_mix =  0.300 |ddv_scf|^2 =  2.173E-13

      iter #   8 total cpu time :  1751.3 secs   av.it.:   6.0
      thresh= 4.661E-08 alpha_mix =  0.300 |ddv_scf|^2 =  8.372E-14

      iter #   9 total cpu time :  1752.1 secs   av.it.:   6.1
      thresh= 2.893E-08 alpha_mix =  0.300 |ddv_scf|^2 =  1.949E-16

     End of self-consistent calculation

     Convergence has been achieved 


     Representation #   6 mode #   6

     Self-consistent Calculation

      iter #   1 total cpu time :  1753.6 secs   av.it.:   3.0
      thresh= 1.000E-02 alpha_mix =  0.300 |ddv_scf|^2 =  2.081E-05

      iter #   2 total cpu time :  1754.9 secs   av.it.:   5.4
      thresh= 4.562E-04 alpha_mix =  0.300 |ddv_scf|^2 =  9.892E-07

      iter #   3 total cpu time :  1756.3 secs   av.it.:   5.7
      thresh= 9.946E-05 alpha_mix =  0.300 |ddv_scf|^2 =  1.025E-07

      iter #   4 total cpu time :  1757.7 secs   av.it.:   5.5
      thresh= 3.201E-05 alpha_mix =  0.300 |ddv_scf|^2 =  2.215E-08

      iter #   5 total cpu time :  1759.0 secs   av.it.:   6.0
      thresh= 1.488E-05 alpha_mix =  0.300 |ddv_scf|^2 =  1.650E-09

      iter #   6 total cpu time :  1760.1 secs   av.it.:   6.1
      thresh= 4.062E-06 alpha_mix =  0.300 |ddv_scf|^2 =  4.612E-11

      iter #   7 total cpu time :  1761.4 secs   av.it.:   4.9
      thresh= 6.791E-07 alpha_mix =  0.300 |ddv_scf|^2 =  2.040E-11

      iter #   8 total cpu time :  1763.2 secs   av.it.:   5.4
      thresh= 4.516E-07 alpha_mix =  0.300 |ddv_scf|^2 =  1.040E-13

      iter #   9 total cpu time :  1764.5 secs   av.it.:   6.4
      thresh= 3.224E-08 alpha_mix =  0.300 |ddv_scf|^2 =  3.454E-14

      iter #  10 total cpu time :  1765.7 secs   av.it.:   6.0
      thresh= 1.858E-08 alpha_mix =  0.300 |ddv_scf|^2 =  2.483E-15

      iter #  11 total cpu time :  1766.4 secs   av.it.:   5.9
      thresh= 4.983E-09 alpha_mix =  0.300 |ddv_scf|^2 =  6.909E-16

     End of self-consistent calculation

     Convergence has been achieved 


     Representation #   7 mode #   7

     Self-consistent Calculation

      iter #   1 total cpu time :  1768.0 secs   av.it.:   1.9
      thresh= 1.000E-02 alpha_mix =  0.300 |ddv_scf|^2 =  6.909E-08

      iter #   2 total cpu time :  1769.2 secs   av.it.:   5.3
      thresh= 2.628E-05 alpha_mix =  0.300 |ddv_scf|^2 =  3.381E-08

      iter #   3 total cpu time :  1770.4 secs   av.it.:   5.3
      thresh= 1.839E-05 alpha_mix =  0.300 |ddv_scf|^2 =  4.935E-11

      iter #   4 total cpu time :  1771.8 secs   av.it.:   5.8
      thresh= 7.025E-07 alpha_mix =  0.300 |ddv_scf|^2 =  1.697E-11

      iter #   5 total cpu time :  1772.9 secs   av.it.:   5.5
      thresh= 4.119E-07 alpha_mix =  0.300 |ddv_scf|^2 =  9.756E-14

      iter #   6 total cpu time :  1774.2 secs   av.it.:   6.0
      thresh= 3.123E-08 alpha_mix =  0.300 |ddv_scf|^2 =  1.873E-15

      iter #   7 total cpu time :  1774.9 secs   av.it.:   5.8
      thresh= 4.328E-09 alpha_mix =  0.300 |ddv_scf|^2 =  4.422E-16

     End of self-consistent calculation

     Convergence has been achieved 


     Representation #   8 mode #   8

     Self-consistent Calculation

      iter #   1 total cpu time :  1776.6 secs   av.it.:   2.2
      thresh= 1.000E-02 alpha_mix =  0.300 |ddv_scf|^2 =  1.410E-06

      iter #   2 total cpu time :  1777.7 secs   av.it.:   5.4
      thresh= 1.187E-04 alpha_mix =  0.300 |ddv_scf|^2 =  6.577E-08

      iter #   3 total cpu time :  1778.8 secs   av.it.:   5.6
      thresh= 2.565E-05 alpha_mix =  0.300 |ddv_scf|^2 =  1.348E-08

      iter #   4 total cpu time :  1780.1 secs   av.it.:   5.7
      thresh= 1.161E-05 alpha_mix =  0.300 |ddv_scf|^2 =  5.240E-10

      iter #   5 total cpu time :  1781.5 secs   av.it.:   6.1
      thresh= 2.289E-06 alpha_mix =  0.300 |ddv_scf|^2 =  3.182E-11

      iter #   6 total cpu time :  1782.6 secs   av.it.:   5.7
      thresh= 5.641E-07 alpha_mix =  0.300 |ddv_scf|^2 =  1.662E-12

      iter #   7 total cpu time :  1783.9 secs   av.it.:   6.2
      thresh= 1.289E-07 alpha_mix =  0.300 |ddv_scf|^2 =  1.071E-14

      iter #   8 total cpu time :  1785.2 secs   av.it.:   5.6
      thresh= 1.035E-08 alpha_mix =  0.300 |ddv_scf|^2 =  4.392E-15

      iter #   9 total cpu time :  1786.0 secs   av.it.:   6.0
      thresh= 6.627E-09 alpha_mix =  0.300 |ddv_scf|^2 =  1.483E-17

     End of self-consistent calculation

     Convergence has been achieved 


     Representation #   9 mode #   9

     Self-consistent Calculation

      iter #   1 total cpu time :  1787.6 secs   av.it.:   2.8
      thresh= 1.000E-02 alpha_mix =  0.300 |ddv_scf|^2 =  9.554E-07

      iter #   2 total cpu time :  1788.8 secs   av.it.:   5.5
      thresh= 9.774E-05 alpha_mix =  0.300 |ddv_scf|^2 =  2.833E-07

      iter #   3 total cpu time :  1790.0 secs   av.it.:   5.7
      thresh= 5.322E-05 alpha_mix =  0.300 |ddv_scf|^2 =  1.572E-08

      iter #   4 total cpu time :  1791.1 secs   av.it.:   5.5
      thresh= 1.254E-05 alpha_mix =  0.300 |ddv_scf|^2 =  1.954E-10

      iter #   5 total cpu time :  1792.3 secs   av.it.:   5.5
      thresh= 1.398E-06 alpha_mix =  0.300 |ddv_scf|^2 =  6.734E-11

      iter #   6 total cpu time :  1793.6 secs   av.it.:   5.1
      thresh= 8.206E-07 alpha_mix =  0.300 |ddv_scf|^2 =  6.406E-14

      iter #   7 total cpu time :  1795.2 secs   av.it.:   6.6
      thresh= 2.531E-08 alpha_mix =  0.300 |ddv_scf|^2 =  9.238E-15

      iter #   8 total cpu time :  1795.9 secs   av.it.:   6.3
      thresh= 9.611E-09 alpha_mix =  0.300 |ddv_scf|^2 =  9.774E-17

     End of self-consistent calculation

     Convergence has been achieved 

     Number of q in the star =    6
     List of q in the star:
          1   0.375000000  -0.216506351  -0.436358562
          2   0.375000000   0.216506351  -0.436358562
          3   0.000000000  -0.433012702  -0.436358562
          4  -0.000000000   0.433012702  -0.436358562
          5  -0.375000000  -0.216506351  -0.436358562
          6  -0.375000000   0.216506351  -0.436358562

     Diagonalizing the dynamical matrix

     q = (    0.375000000  -0.216506351  -0.436358562 ) 

 **************************************************************************
     freq (    1) =       7.633686 [THz] =     254.632349 [cm-1]
     freq (    2) =       8.266906 [THz] =     275.754296 [cm-1]
     freq (    3) =       8.778700 [THz] =     292.825919 [cm-1]
     freq (    4) =      13.271612 [THz] =     442.693328 [cm-1]
     freq (    5) =      13.886182 [THz] =     463.193159 [cm-1]
     freq (    6) =      17.940560 [THz] =     598.432661 [cm-1]
     freq (    7) =      19.626900 [THz] =     654.682908 [cm-1]
     freq (    8) =      22.268301 [THz] =     742.790577 [cm-1]
     freq (    9) =      24.057933 [THz] =     802.486252 [cm-1]
 **************************************************************************

     init_run     :      8.33s CPU      8.46s WALL (      12 calls)
     electrons    :     27.00s CPU     27.38s WALL (      12 calls)

     Called by init_run:
     wfcinit      :      0.00s CPU      0.06s WALL (      12 calls)
     potinit      :      1.02s CPU      1.07s WALL (      12 calls)
     hinit0       :      7.03s CPU      7.04s WALL (      12 calls)

     Called by electrons:
     c_bands      :     24.64s CPU     25.00s WALL (      12 calls)
     v_of_rho     :      0.43s CPU      0.45s WALL (      13 calls)
     newd         :      0.05s CPU      0.05s WALL (      13 calls)
     PAW_pot      :      0.59s CPU      0.60s WALL (      13 calls)

     Called by c_bands:
     init_us_2    :      3.70s CPU      3.85s WALL (   13045 calls)
     cegterg      :     16.34s CPU     16.62s WALL (     298 calls)

     Called by *egterg:
     cdiaghg      :      0.82s CPU      0.84s WALL (    4547 calls)
     h_psi        :    254.33s CPU    259.51s WALL (  134300 calls)
     s_psi        :     16.59s CPU     17.03s WALL (  275090 calls)
     g_psi        :      0.41s CPU      0.42s WALL (    4319 calls)

     Called by h_psi:
     h_psi:calbec :     10.36s CPU     10.53s WALL (  134300 calls)
     vloc_psi     :    233.85s CPU    238.68s WALL (  134300 calls)
     add_vuspsi   :      8.44s CPU      8.65s WALL (  134300 calls)

     General routines
     calbec       :     20.48s CPU     20.93s WALL (  293151 calls)
     fft          :     17.50s CPU     17.71s WALL (   20960 calls)
     ffts         :      1.48s CPU      1.53s WALL (    4546 calls)
     fftw         :    264.98s CPU    271.18s WALL ( 1422656 calls)
     interpolate  :      3.58s CPU      3.69s WALL (    2440 calls)
     davcio       :      2.30s CPU     14.60s WALL (   70215 calls)

     Parallel routines

     PHONON       :  14m35.25s CPU  29m57.22s WALL

     INITIALIZATION: 
     phq_setup    :      1.30s CPU      1.68s WALL (      12 calls)
     phq_init     :     46.52s CPU     46.79s WALL (      12 calls)

     phq_init     :     46.52s CPU     46.79s WALL (      12 calls)
     set_drhoc    :     25.01s CPU     25.06s WALL (      36 calls)
     init_vloc    :      0.35s CPU      0.35s WALL (      13 calls)
     init_us_1    :      5.87s CPU      5.88s WALL (      13 calls)
     newd         :      0.05s CPU      0.05s WALL (      13 calls)
     dvanqq       :      4.85s CPU      4.88s WALL (      12 calls)
     drho         :      9.52s CPU      9.64s WALL (      12 calls)

     DYNAMICAL MATRIX:
     dynmat0      :     18.03s CPU     18.11s WALL (      12 calls)
     phqscf       :    790.31s CPU   1700.10s WALL (      12 calls)
     dynmatrix    :      0.09s CPU      1.24s WALL (      12 calls)

     phqscf       :    790.31s CPU   1700.10s WALL (      12 calls)
     solve_linter :    786.59s CPU   1631.49s WALL (     108 calls)
     drhodv       :      3.34s CPU      3.40s WALL (     108 calls)

     dynmat0      :     18.03s CPU     18.11s WALL (      12 calls)
     dynmat_us    :      0.34s CPU      0.34s WALL (      12 calls)
     d2ionq       :      0.18s CPU      0.18s WALL (      12 calls)
     dynmatcc     :     17.02s CPU     17.05s WALL (      12 calls)

     dynmat_us    :      0.34s CPU      0.34s WALL (      12 calls)
     addusdynmat  :      0.00s CPU      0.00s WALL (      12 calls)

     phqscf       :    790.31s CPU   1700.10s WALL (      12 calls)
     solve_linter :    786.59s CPU   1631.49s WALL (     108 calls)

     solve_linter :    786.59s CPU   1631.49s WALL (     108 calls)
     dvqpsi_us    :      4.91s CPU      5.03s WALL (    1026 calls)
     ortho        :      3.01s CPU      3.09s WALL (   11335 calls)
     cgsolve      :    278.95s CPU    284.77s WALL (   11335 calls)
     incdrhoscf   :     41.58s CPU     42.64s WALL (   11335 calls)
     addusddens   :     61.52s CPU     62.03s WALL (    1262 calls)
     vpsifft      :     35.80s CPU     37.06s WALL (   10309 calls)
     dv_of_drho   :     20.19s CPU     20.77s WALL (    1154 calls)
     mix_pot      :      2.29s CPU    528.54s WALL (    1154 calls)
     psymdvscf    :      4.48s CPU      4.50s WALL (     928 calls)
     newdq        :     57.42s CPU     57.64s WALL (    1154 calls)
     adddvscf     :      1.33s CPU      1.36s WALL (   10309 calls)
     drhodvus     :      0.16s CPU      0.38s WALL (     108 calls)

     dvqpsi_us    :      4.91s CPU      5.03s WALL (    1026 calls)
     dvqpsi_us_on :      0.66s CPU      0.67s WALL (    1026 calls)

     cgsolve      :    278.95s CPU    284.77s WALL (   11335 calls)
     ch_psi       :    275.19s CPU    280.86s WALL (  129455 calls)

     ch_psi       :    275.19s CPU    280.86s WALL (  129455 calls)
     h_psi        :    254.33s CPU    259.51s WALL (  134300 calls)
     last         :     25.00s CPU     25.56s WALL (  129455 calls)

     h_psi        :    254.33s CPU    259.51s WALL (  134300 calls)
     add_vuspsi   :      8.44s CPU      8.65s WALL (  134300 calls)

     incdrhoscf   :     41.58s CPU     42.64s WALL (   11335 calls)
     addusdbec    :      1.39s CPU      1.40s WALL (   12361 calls)

     drhodvus     :      0.16s CPU      0.38s WALL (     108 calls)

      General routines
     calbec       :     20.48s CPU     20.93s WALL (  293151 calls)
     fft          :     17.50s CPU     17.71s WALL (   20960 calls)
     ffts         :      1.48s CPU      1.53s WALL (    4546 calls)
     fftw         :    264.98s CPU    271.18s WALL ( 1422656 calls)
     davcio       :      2.30s CPU     14.60s WALL (   70215 calls)
     write_rec    :      1.01s CPU    360.63s WALL (    1262 calls)


     PHONON       :  14m35.25s CPU  29m57.22s WALL


   This run was terminated on:   1:48:34  28Jun2022            

=------------------------------------------------------------------------------=
   JOB DONE.
=------------------------------------------------------------------------------=
