
     Program PHONON v.7.4.1 starts on 17Mar2026 at 22:47:12 

     This program is part of the open-source Quantum ESPRESSO suite
     for quantum simulation of materials; please cite
         "P. Giannozzi et al., J. Phys.:Condens. Matter 21 395502 (2009);
         "P. Giannozzi et al., J. Phys.:Condens. Matter 29 465901 (2017);
         "P. Giannozzi et al., J. Chem. Phys. 152 154105 (2020);
          URL http://www.quantum-espresso.org", 
     in publications or presentations arising from this work. More details at
     http://www.quantum-espresso.org/quote

     Parallel version (MPI & OpenMP), running on      64 processor cores
     Number of MPI processes:                64
     Threads/MPI process:                     1

     MPI processes distributed on     1 nodes
     225129 MiB available memory on the printing compute node when the environment starts
 
     Reading input from ph.in

     Reading xml data from directory:

     ./pwscf.save/
 
     K-points division:     npool     =      64
     Subspace diagonalization in iterative solution of the eigenvalue problem:
     a serial algorithm will be used

     file B.pbe-n-kjpaw_psl.0.1.upf: wavefunction(s)  2P renormalized
     file Mg.pbe-n-kjpaw_psl.0.3.0.upf: wavefunction(s)  3S renormalized

     IMPORTANT: XC functional enforced from input :
     Exchange-correlation= PBE
                           (   1   4   3   4   0   0   0)
     Any further DFT definition will be discarded
     Please, verify this is what you really want

 
     G-vector sticks info
     --------------------
     sticks:   dense  smooth     PW     G-vecs:    dense   smooth      PW
     Sum         649     313    109                15395     5449    1011
 
     Using Slab Decomposition
 

     Check: negative core charge=   -0.000006
     Message from routine divide_et_impera:
     suboptimal parallelization: some nodes have no k-points
     Reading collected, re-writing distributed wavefunctions in ./


     Dynamical matrices for ( 4, 4, 3)  uniform grid of q-points
     With a half shift  0  0  1
     (   8 q-points):
       N         xq(1)         xq(2)         xq(3) 
       1   0.000000000   0.000000000   0.145452854
       2   0.000000000   0.000000000  -0.436358562
       3   0.000000000   0.288675135   0.145452854
       4   0.000000000   0.288675135  -0.436358562
       5   0.000000000  -0.577350269   0.145452854
       6   0.000000000  -0.577350269  -0.436358562
       7   0.250000000   0.433012702   0.145452854
       8   0.250000000   0.433012702  -0.436358562
     Because shifted q grid is used, q2r will not work !

     Number and degeneracy of irreps per q-point
       N         xq(1)         xq(2)         xq(3)   N irreps
       1   0.000000000   0.000000000   0.145452854       6
        1   1   2   1   2   2
       2   0.000000000   0.000000000  -0.436358562       6
        1   1   2   1   2   2
       3   0.000000000   0.288675135   0.145452854       9
     No degeneracy
       4   0.000000000   0.288675135  -0.436358562       9
     No degeneracy
       5   0.000000000  -0.577350269   0.145452854       9
     No degeneracy
       6   0.000000000  -0.577350269  -0.436358562       9
     No degeneracy
       7   0.250000000   0.433012702   0.145452854       9
     No degeneracy
       8   0.250000000   0.433012702  -0.436358562       9
     No degeneracy

     Saving dvscf to file. Distribute only q points, not irreducible representations.

     Calculation of q =    0.0000000   0.0000000   0.1454529
     [opt_tetra]  Optimized tetrahedron method is used.
     Message from routine divide_et_impera:
     suboptimal parallelization: some nodes have no k-points
 
     G-vector sticks info
     --------------------
     sticks:   dense  smooth     PW     G-vecs:    dense   smooth      PW
     Sum         649     313    109                15395     5449    1011
 
     Using Slab Decomposition
 

     Title: 
     Phonon                                                                     


     bravais-lattice index     =            0
     lattice parameter (alat)  =       5.8042  a.u.
     unit-cell volume          =     194.0373 (a.u.)^3
     number of atoms/cell      =            3
     number of atomic types    =            2
     number of electrons       =         8.00
     number of Kohn-Sham states=            8
     kinetic-energy cutoff     =      35.0000  Ry
     charge density cutoff     =     280.0000  Ry
     Exchange-correlation= PBE
                           (   1   4   3   4   0   0   0)

     celldm(1)=   5.804205  celldm(2)=   0.000000  celldm(3)=   0.000000
     celldm(4)=   0.000000  celldm(5)=   0.000000  celldm(6)=   0.000000

     crystal axes: (cart. coord. in units of alat)
               a(1) = (   1.000000   0.000000   0.000000 )  
               a(2) = (  -0.500000   0.866025   0.000000 )  
               a(3) = (   0.000000   0.000000   1.145847 )  

     reciprocal axes: (cart. coord. in units 2 pi/alat)
               b(1) = (  1.000000  0.577350  0.000000 )  
               b(2) = (  0.000000  1.154701  0.000000 )  
               b(3) = (  0.000000  0.000000  0.872717 )  


     PseudoPot. # 1 for B  read from file:
     ./B.pbe-n-kjpaw_psl.0.1.upf
     MD5 check sum: b4345a612e0782cca08559f453f3313f
     Pseudo is Projector augmented-wave + core cor, Zval =  3.0
     Generated using "atomic" code by A. Dal Corso  v.5.0.99 svn rev. 10869
     Shape of augmentation charge: BESSEL
     Using radial grid of 1059 points,  4 beta functions with: 
                l(1) =   0
                l(2) =   0
                l(3) =   1
                l(4) =   1
     Q(r) pseudized with 0 coefficients 


     PseudoPot. # 2 for Mg read from file:
     ./Mg.pbe-n-kjpaw_psl.0.3.0.upf
     MD5 check sum: 9eaefceb6cf3903db1b93e4e5c6adf9a
     Pseudo is Projector augmented-wave + core cor, Zval =  2.0
     Generated using "atomic" code by A. Dal Corso  v.5.0.99 svn rev. 10869
     Shape of augmentation charge: PSQ
     Using radial grid of 1129 points,  4 beta functions with: 
                l(1) =   0
                l(2) =   0
                l(3) =   1
                l(4) =   1
     Q(r) pseudized with 0 coefficients 


     atomic species   valence    mass     pseudopotential
     B                 3.00    10.81100     B ( 1.00)
     Mg                2.00    24.30500     Mg( 1.00)

     24 Sym. Ops., with inversion, found



   Cartesian axes

     site n.     atom                  positions (alat units)
         1        Mg     tau(   1) = (   0.0000000   0.0000000   0.0000000  )
         2        B      tau(   2) = (  -0.0000000   0.5773503   0.5729233  )
         3        B      tau(   3) = (   0.5000000   0.2886751   0.5729233  )

     number of k points=   120 (tetrahedron method)

     Number of k-points >= 100: set verbosity='high' to print them.

     Dense  grid:    15395 G-vectors     FFT dimensions: (  32,  32,  36)

     Smooth grid:     5449 G-vectors     FFT dimensions: (  24,  24,  25)

     Estimated max dynamical RAM per process >       7.38 MB

     Estimated total dynamical RAM >     472.20 MB

     Check: negative core charge=   -0.000006

     The potential is recalculated from file :
     ./_ph0/pwscf.q_1/pwscf.save/charge-density

     Starting wfcs are   12 atomic wfcs
     Checking if some PAW data can be deallocated... 

     Band Structure Calculation
     Davidson diagonalization with overlap

     ethr =  1.25E-10,  avg # of iterations = 19.2

     total cpu time spent up to now is        0.4 secs

     End of band structure calculation

     Number of k-points >= 100: set verbosity='high' to print the bands.

     the Fermi energy is     7.6604 ev
 
     [dfpt_tetra]  Dos(E_F)[/Ry] :   0.8845642E+01

     Phonon                                                                     

     bravais-lattice index     =            0
     lattice parameter (alat)  =       5.8042  a.u.
     unit-cell volume          =     194.0373 (a.u.)^3
     number of atoms/cell      =            3
     number of atomic types    =            2
     kinetic-energy cut-off    =      35.0000  Ry
     charge density cut-off    =     280.0000  Ry
     convergence threshold     =      1.0E-15
     beta                      =       0.3000
     number of iterations used =            4
     Exchange-correlation= PBE
                           (   1   4   3   4   0   0   0)


     celldm(1)=    5.80420  celldm(2)=    0.00000  celldm(3)=    0.00000
     celldm(4)=    0.00000  celldm(5)=    0.00000  celldm(6)=    0.00000

     crystal axes: (cart. coord. in units of alat)
               a(1) = (  1.0000  0.0000  0.0000 )  
               a(2) = ( -0.5000  0.8660  0.0000 )  
               a(3) = (  0.0000  0.0000  1.1458 )  

     reciprocal axes: (cart. coord. in units 2 pi/alat)
               b(1) = (  1.0000  0.5774  0.0000 )  
               b(2) = (  0.0000  1.1547  0.0000 )  
               b(3) = (  0.0000  0.0000  0.8727 )  


     Atoms inside the unit cell: 

     Cartesian axes

     site n.  atom      mass           positions (alat units)
        1  Mg     24.3050   tau(    1) = (    0.00000    0.00000    0.00000  )
        2  B      10.8110   tau(    2) = (   -0.00000    0.57735    0.57292  )
        3  B      10.8110   tau(    3) = (    0.50000    0.28868    0.57292  )

     Computing dynamical matrix for 
                    q = (   0.0000000   0.0000000   0.1454529 )
 
     12 Sym.Ops. (no q -> -q+G )


     G cutoff =  238.9372  (  15395 G-vectors)     FFT grid: ( 32, 32, 36)
     G cutoff =  119.4686  (   5449 G-vectors)  smooth grid: ( 24, 24, 25)
     number of k points=   120

     PseudoPot. # 1 for B  read from file:
     ./B.pbe-n-kjpaw_psl.0.1.upf
     MD5 check sum: b4345a612e0782cca08559f453f3313f
     Pseudo is Projector augmented-wave + core cor, Zval =  3.0
     Generated using "atomic" code by A. Dal Corso  v.5.0.99 svn rev. 10869
     Shape of augmentation charge: BESSEL
     Using radial grid of 1059 points,  4 beta functions with: 
                l(1) =   0
                l(2) =   0
                l(3) =   1
                l(4) =   1
     Q(r) pseudized with 0 coefficients 


     PseudoPot. # 2 for Mg read from file:
     ./Mg.pbe-n-kjpaw_psl.0.3.0.upf
     MD5 check sum: 9eaefceb6cf3903db1b93e4e5c6adf9a
     Pseudo is Projector augmented-wave + core cor, Zval =  2.0
     Generated using "atomic" code by A. Dal Corso  v.5.0.99 svn rev. 10869
     Shape of augmentation charge: PSQ
     Using radial grid of 1129 points,  4 beta functions with: 
                l(1) =   0
                l(2) =   0
                l(3) =   1
                l(4) =   1
     Q(r) pseudized with 0 coefficients 



     Atomic displacements:
     There are    6 irreducible representations

     Representation     1      1 modes -  To be done

     Representation     2      1 modes -  To be done

     Representation     3      2 modes -  To be done

     Representation     4      1 modes -  To be done

     Representation     5      2 modes -  To be done

     Representation     6      2 modes -  To be done


     Message from routine init_vloc:
     Interpolation table for Vloc re-allocated

     Alpha used in Ewald sum =   2.8000
     PHONON       :      2.02s CPU      2.70s WALL



     Representation #   1 mode #   1

     Self-consistent Calculation

      iter #   1 total cpu time :     2.9 secs   av.it.:   3.0
      thresh= 1.000E-02 alpha_mix =  0.300 |ddv_scf|^2 =  3.898E-02

      iter #   2 total cpu time :     3.2 secs   av.it.:   5.0
      thresh= 1.000E-02 alpha_mix =  0.300 |ddv_scf|^2 =  6.948E+00

      iter #   3 total cpu time :     3.4 secs   av.it.:   5.0
      thresh= 1.000E-02 alpha_mix =  0.300 |ddv_scf|^2 =  1.929E-06

      iter #   4 total cpu time :     3.6 secs   av.it.:   4.9
      thresh= 1.389E-04 alpha_mix =  0.300 |ddv_scf|^2 =  6.465E-08

      iter #   5 total cpu time :     3.8 secs   av.it.:   4.8
      thresh= 2.543E-05 alpha_mix =  0.300 |ddv_scf|^2 =  4.048E-08

      iter #   6 total cpu time :     4.1 secs   av.it.:   4.5
      thresh= 2.012E-05 alpha_mix =  0.300 |ddv_scf|^2 =  3.752E-09

      iter #   7 total cpu time :     4.3 secs   av.it.:   4.0
      thresh= 6.125E-06 alpha_mix =  0.300 |ddv_scf|^2 =  1.552E-09

      iter #   8 total cpu time :     4.5 secs   av.it.:   3.6
      thresh= 3.939E-06 alpha_mix =  0.300 |ddv_scf|^2 =  3.367E-09

      iter #   9 total cpu time :     4.8 secs   av.it.:   3.3
      thresh= 5.803E-06 alpha_mix =  0.300 |ddv_scf|^2 =  1.096E-11

      iter #  10 total cpu time :     5.0 secs   av.it.:   5.0
      thresh= 3.310E-07 alpha_mix =  0.300 |ddv_scf|^2 =  3.542E-13

      iter #  11 total cpu time :     5.2 secs   av.it.:   5.7
      thresh= 5.951E-08 alpha_mix =  0.300 |ddv_scf|^2 =  6.498E-13

      iter #  12 total cpu time :     5.4 secs   av.it.:   4.5
      thresh= 8.061E-08 alpha_mix =  0.300 |ddv_scf|^2 =  3.100E-14

      iter #  13 total cpu time :     5.6 secs   av.it.:   5.3
      thresh= 1.761E-08 alpha_mix =  0.300 |ddv_scf|^2 =  1.319E-14

      iter #  14 total cpu time :     5.8 secs   av.it.:   4.6
      thresh= 1.149E-08 alpha_mix =  0.300 |ddv_scf|^2 =  1.121E-13

      iter #  15 total cpu time :     5.9 secs   av.it.:   3.2
      thresh= 3.348E-08 alpha_mix =  0.300 |ddv_scf|^2 =  9.514E-15

      iter #  16 total cpu time :     6.1 secs   av.it.:   4.9
      thresh= 9.754E-09 alpha_mix =  0.300 |ddv_scf|^2 =  3.568E-15

      iter #  17 total cpu time :     6.3 secs   av.it.:   4.2
      thresh= 5.974E-09 alpha_mix =  0.300 |ddv_scf|^2 =  2.083E-17

     End of self-consistent calculation

     Convergence has been achieved 


     Representation #   2 mode #   2

     Self-consistent Calculation

      iter #   1 total cpu time :     6.6 secs   av.it.:   3.9
      thresh= 1.000E-02 alpha_mix =  0.300 |ddv_scf|^2 =  1.730E-01

      iter #   2 total cpu time :     6.8 secs   av.it.:   5.7
      thresh= 1.000E-02 alpha_mix =  0.300 |ddv_scf|^2 =  3.066E+01

      iter #   3 total cpu time :     7.0 secs   av.it.:   5.6
      thresh= 1.000E-02 alpha_mix =  0.300 |ddv_scf|^2 =  2.960E-04

      iter #   4 total cpu time :     7.2 secs   av.it.:   3.3
      thresh= 1.720E-03 alpha_mix =  0.300 |ddv_scf|^2 =  9.015E-07

      iter #   5 total cpu time :     7.4 secs   av.it.:   5.3
      thresh= 9.494E-05 alpha_mix =  0.300 |ddv_scf|^2 =  6.485E-07

      iter #   6 total cpu time :     7.6 secs   av.it.:   4.1
      thresh= 8.053E-05 alpha_mix =  0.300 |ddv_scf|^2 =  2.684E-09

      iter #   7 total cpu time :     7.8 secs   av.it.:   5.7
      thresh= 5.181E-06 alpha_mix =  0.300 |ddv_scf|^2 =  2.528E-08

      iter #   8 total cpu time :     8.0 secs   av.it.:   3.6
      thresh= 1.590E-05 alpha_mix =  0.300 |ddv_scf|^2 =  3.128E-08

      iter #   9 total cpu time :     8.3 secs   av.it.:   3.2
      thresh= 1.769E-05 alpha_mix =  0.300 |ddv_scf|^2 =  3.744E-11

      iter #  10 total cpu time :     8.5 secs   av.it.:   4.9
      thresh= 6.119E-07 alpha_mix =  0.300 |ddv_scf|^2 =  3.988E-12

      iter #  11 total cpu time :     8.7 secs   av.it.:   4.8
      thresh= 1.997E-07 alpha_mix =  0.300 |ddv_scf|^2 =  1.901E-12

      iter #  12 total cpu time :     9.0 secs   av.it.:   3.3
      thresh= 1.379E-07 alpha_mix =  0.300 |ddv_scf|^2 =  1.354E-14

      iter #  13 total cpu time :     9.2 secs   av.it.:   5.2
      thresh= 1.164E-08 alpha_mix =  0.300 |ddv_scf|^2 =  3.735E-15

      iter #  14 total cpu time :     9.4 secs   av.it.:   4.9
      thresh= 6.112E-09 alpha_mix =  0.300 |ddv_scf|^2 =  3.661E-15

      iter #  15 total cpu time :     9.8 secs   av.it.:   4.5
      thresh= 6.051E-09 alpha_mix =  0.300 |ddv_scf|^2 =  4.562E-16

     End of self-consistent calculation

     Convergence has been achieved 


     Representation #   3 modes #   3   4

     Self-consistent Calculation

      iter #   1 total cpu time :    10.1 secs   av.it.:   2.7
      thresh= 1.000E-02 alpha_mix =  0.300 |ddv_scf|^2 =  2.733E-07

      iter #   2 total cpu time :    10.5 secs   av.it.:   5.9
      thresh= 5.227E-05 alpha_mix =  0.300 |ddv_scf|^2 =  8.345E-08

      iter #   3 total cpu time :    10.8 secs   av.it.:   6.2
      thresh= 2.889E-05 alpha_mix =  0.300 |ddv_scf|^2 =  3.569E-09

      iter #   4 total cpu time :    11.1 secs   av.it.:   5.5
      thresh= 5.974E-06 alpha_mix =  0.300 |ddv_scf|^2 =  5.604E-11

      iter #   5 total cpu time :    11.4 secs   av.it.:   6.4
      thresh= 7.486E-07 alpha_mix =  0.300 |ddv_scf|^2 =  1.508E-11

      iter #   6 total cpu time :    11.8 secs   av.it.:   5.7
      thresh= 3.883E-07 alpha_mix =  0.300 |ddv_scf|^2 =  2.982E-15

      iter #   7 total cpu time :    12.1 secs   av.it.:   6.7
      thresh= 5.461E-09 alpha_mix =  0.300 |ddv_scf|^2 =  8.548E-16

     End of self-consistent calculation

     Convergence has been achieved 


     Representation #   4 mode #   5

     Self-consistent Calculation

      iter #   1 total cpu time :    12.5 secs   av.it.:   2.2
      thresh= 1.000E-02 alpha_mix =  0.300 |ddv_scf|^2 =  2.382E-07

      iter #   2 total cpu time :    12.7 secs   av.it.:   4.8
      thresh= 4.880E-05 alpha_mix =  0.300 |ddv_scf|^2 =  1.150E-07

      iter #   3 total cpu time :    12.9 secs   av.it.:   4.8
      thresh= 3.391E-05 alpha_mix =  0.300 |ddv_scf|^2 =  9.538E-10

      iter #   4 total cpu time :    13.2 secs   av.it.:   5.7
      thresh= 3.088E-06 alpha_mix =  0.300 |ddv_scf|^2 =  9.792E-11

      iter #   5 total cpu time :    13.4 secs   av.it.:   5.4
      thresh= 9.896E-07 alpha_mix =  0.300 |ddv_scf|^2 =  7.484E-12

      iter #   6 total cpu time :    13.6 secs   av.it.:   5.2
      thresh= 2.736E-07 alpha_mix =  0.300 |ddv_scf|^2 =  2.204E-12

      iter #   7 total cpu time :    13.9 secs   av.it.:   5.7
      thresh= 1.484E-07 alpha_mix =  0.300 |ddv_scf|^2 =  6.005E-16

     End of self-consistent calculation

     Convergence has been achieved 


     Representation #   5 modes #   6   7

     Self-consistent Calculation

      iter #   1 total cpu time :    14.3 secs   av.it.:   2.5
      thresh= 1.000E-02 alpha_mix =  0.300 |ddv_scf|^2 =  8.104E-08

      iter #   2 total cpu time :    14.6 secs   av.it.:   5.8
      thresh= 2.847E-05 alpha_mix =  0.300 |ddv_scf|^2 =  3.534E-08

      iter #   3 total cpu time :    14.9 secs   av.it.:   5.9
      thresh= 1.880E-05 alpha_mix =  0.300 |ddv_scf|^2 =  1.091E-09

      iter #   4 total cpu time :    15.3 secs   av.it.:   6.0
      thresh= 3.302E-06 alpha_mix =  0.300 |ddv_scf|^2 =  3.467E-11

      iter #   5 total cpu time :    15.6 secs   av.it.:   6.0
      thresh= 5.888E-07 alpha_mix =  0.300 |ddv_scf|^2 =  7.810E-12

      iter #   6 total cpu time :    16.0 secs   av.it.:   6.0
      thresh= 2.795E-07 alpha_mix =  0.300 |ddv_scf|^2 =  1.921E-15

      iter #   7 total cpu time :    16.3 secs   av.it.:   6.4
      thresh= 4.383E-09 alpha_mix =  0.300 |ddv_scf|^2 =  6.599E-16

     End of self-consistent calculation

     Convergence has been achieved 


     Representation #   6 modes #   8   9

     Self-consistent Calculation

      iter #   1 total cpu time :    16.6 secs   av.it.:   1.8
      thresh= 1.000E-02 alpha_mix =  0.300 |ddv_scf|^2 =  1.900E-08

      iter #   2 total cpu time :    17.0 secs   av.it.:   5.7
      thresh= 1.378E-05 alpha_mix =  0.300 |ddv_scf|^2 =  9.216E-09

      iter #   3 total cpu time :    17.3 secs   av.it.:   5.7
      thresh= 9.600E-06 alpha_mix =  0.300 |ddv_scf|^2 =  1.959E-11

      iter #   4 total cpu time :    17.6 secs   av.it.:   6.3
      thresh= 4.426E-07 alpha_mix =  0.300 |ddv_scf|^2 =  4.283E-12

      iter #   5 total cpu time :    17.9 secs   av.it.:   6.0
      thresh= 2.070E-07 alpha_mix =  0.300 |ddv_scf|^2 =  2.177E-13

      iter #   6 total cpu time :    18.2 secs   av.it.:   6.2
      thresh= 4.666E-08 alpha_mix =  0.300 |ddv_scf|^2 =  1.111E-15

      iter #   7 total cpu time :    18.6 secs   av.it.:   6.0
      thresh= 3.334E-09 alpha_mix =  0.300 |ddv_scf|^2 =  4.001E-16

     End of self-consistent calculation

     Convergence has been achieved 
 
     Number of q in the star =    2
     List of q in the star:
          1   0.000000000   0.000000000   0.145452854
          2   0.000000000   0.000000000  -0.145452854

     Diagonalizing the dynamical matrix

     q = (    0.000000000   0.000000000   0.145452854 ) 

 **************************************************************************
     freq (    1) =       2.789733 [THz] =      93.055488 [cm-1]
     freq (    2) =       2.789733 [THz] =      93.055488 [cm-1]
     freq (    3) =       5.117168 [THz] =     170.690344 [cm-1]
     freq (    4) =       9.711593 [THz] =     323.943876 [cm-1]
     freq (    5) =       9.711593 [THz] =     323.943876 [cm-1]
     freq (    6) =      12.583613 [THz] =     419.744155 [cm-1]
     freq (    7) =      17.386509 [THz] =     579.951513 [cm-1]
     freq (    8) =      17.386509 [THz] =     579.951513 [cm-1]
     freq (    9) =      20.727703 [THz] =     691.401759 [cm-1]
 **************************************************************************

     Calculation of q =    0.0000000   0.0000000  -0.4363586
     [opt_tetra]  Optimized tetrahedron method is used.
     Message from routine divide_et_impera:
     suboptimal parallelization: some nodes have no k-points
 
     G-vector sticks info
     --------------------
     sticks:   dense  smooth     PW     G-vecs:    dense   smooth      PW
     Sum         649     313    121                15395     5449    1167
 
     Using Slab Decomposition
 

     Title: 
     Phonon                                                                     


     bravais-lattice index     =            0
     lattice parameter (alat)  =       5.8042  a.u.
     unit-cell volume          =     194.0373 (a.u.)^3
     number of atoms/cell      =            3
     number of atomic types    =            2
     number of electrons       =         8.00
     number of Kohn-Sham states=            8
     kinetic-energy cutoff     =      35.0000  Ry
     charge density cutoff     =     280.0000  Ry
     Exchange-correlation= PBE
                           (   1   4   3   4   0   0   0)

     celldm(1)=   5.804205  celldm(2)=   0.000000  celldm(3)=   0.000000
     celldm(4)=   0.000000  celldm(5)=   0.000000  celldm(6)=   0.000000

     crystal axes: (cart. coord. in units of alat)
               a(1) = (   1.000000   0.000000   0.000000 )  
               a(2) = (  -0.500000   0.866025   0.000000 )  
               a(3) = (   0.000000   0.000000   1.145847 )  

     reciprocal axes: (cart. coord. in units 2 pi/alat)
               b(1) = (  1.000000  0.577350  0.000000 )  
               b(2) = (  0.000000  1.154701  0.000000 )  
               b(3) = (  0.000000  0.000000  0.872717 )  


     PseudoPot. # 1 for B  read from file:
     ./B.pbe-n-kjpaw_psl.0.1.upf
     MD5 check sum: b4345a612e0782cca08559f453f3313f
     Pseudo is Projector augmented-wave + core cor, Zval =  3.0
     Generated using "atomic" code by A. Dal Corso  v.5.0.99 svn rev. 10869
     Shape of augmentation charge: BESSEL
     Using radial grid of 1059 points,  4 beta functions with: 
                l(1) =   0
                l(2) =   0
                l(3) =   1
                l(4) =   1
     Q(r) pseudized with 0 coefficients 


     PseudoPot. # 2 for Mg read from file:
     ./Mg.pbe-n-kjpaw_psl.0.3.0.upf
     MD5 check sum: 9eaefceb6cf3903db1b93e4e5c6adf9a
     Pseudo is Projector augmented-wave + core cor, Zval =  2.0
     Generated using "atomic" code by A. Dal Corso  v.5.0.99 svn rev. 10869
     Shape of augmentation charge: PSQ
     Using radial grid of 1129 points,  4 beta functions with: 
                l(1) =   0
                l(2) =   0
                l(3) =   1
                l(4) =   1
     Q(r) pseudized with 0 coefficients 


     atomic species   valence    mass     pseudopotential
     B                 3.00    10.81100     B ( 1.00)
     Mg                2.00    24.30500     Mg( 1.00)

     24 Sym. Ops., with inversion, found



   Cartesian axes

     site n.     atom                  positions (alat units)
         1        Mg     tau(   1) = (   0.0000000   0.0000000   0.0000000  )
         2        B      tau(   2) = (  -0.0000000   0.5773503   0.5729233  )
         3        B      tau(   3) = (   0.5000000   0.2886751   0.5729233  )

     number of k points=    80 (tetrahedron method)
                       cart. coord. in units 2pi/alat
        k(    1) = (   0.0000000   0.0000000   0.0000000), wk =   0.0052083
        k(    2) = (   0.0000000   0.0000000  -0.4363586), wk =   0.0000000
        k(    3) = (   0.0000000   0.0000000   0.1454529), wk =   0.0104167
        k(    4) = (   0.0000000   0.0000000  -0.2909057), wk =   0.0000000
        k(    5) = (   0.0000000   0.0000000   0.2909057), wk =   0.0104167
        k(    6) = (   0.0000000   0.0000000  -0.1454529), wk =   0.0000000
        k(    7) = (   0.0000000   0.0000000  -0.4363586), wk =   0.0052083
        k(    8) = (   0.0000000   0.0000000  -0.8727171), wk =   0.0000000
        k(    9) = (   0.0000000   0.1443376   0.0000000), wk =   0.0312500
        k(   10) = (   0.0000000   0.1443376  -0.4363586), wk =   0.0000000
        k(   11) = (   0.0000000   0.1443376   0.1454529), wk =   0.0625000
        k(   12) = (   0.0000000   0.1443376  -0.2909057), wk =   0.0000000
        k(   13) = (   0.0000000   0.1443376   0.2909057), wk =   0.0625000
        k(   14) = (   0.0000000   0.1443376  -0.1454529), wk =   0.0000000
        k(   15) = (   0.0000000   0.1443376  -0.4363586), wk =   0.0312500
        k(   16) = (   0.0000000   0.1443376  -0.8727171), wk =   0.0000000
        k(   17) = (   0.0000000   0.2886751   0.0000000), wk =   0.0312500
        k(   18) = (   0.0000000   0.2886751  -0.4363586), wk =   0.0000000
        k(   19) = (   0.0000000   0.2886751   0.1454529), wk =   0.0625000
        k(   20) = (   0.0000000   0.2886751  -0.2909057), wk =   0.0000000
        k(   21) = (   0.0000000   0.2886751   0.2909057), wk =   0.0625000
        k(   22) = (   0.0000000   0.2886751  -0.1454529), wk =   0.0000000
        k(   23) = (   0.0000000   0.2886751  -0.4363586), wk =   0.0312500
        k(   24) = (   0.0000000   0.2886751  -0.8727171), wk =   0.0000000
        k(   25) = (   0.0000000   0.4330127   0.0000000), wk =   0.0312500
        k(   26) = (   0.0000000   0.4330127  -0.4363586), wk =   0.0000000
        k(   27) = (   0.0000000   0.4330127   0.1454529), wk =   0.0625000
        k(   28) = (   0.0000000   0.4330127  -0.2909057), wk =   0.0000000
        k(   29) = (   0.0000000   0.4330127   0.2909057), wk =   0.0625000
        k(   30) = (   0.0000000   0.4330127  -0.1454529), wk =   0.0000000
        k(   31) = (   0.0000000   0.4330127  -0.4363586), wk =   0.0312500
        k(   32) = (   0.0000000   0.4330127  -0.8727171), wk =   0.0000000
        k(   33) = (   0.0000000  -0.5773503   0.0000000), wk =   0.0156250
        k(   34) = (   0.0000000  -0.5773503  -0.4363586), wk =   0.0000000
        k(   35) = (   0.0000000  -0.5773503   0.1454529), wk =   0.0312500
        k(   36) = (   0.0000000  -0.5773503  -0.2909057), wk =   0.0000000
        k(   37) = (   0.0000000  -0.5773503   0.2909057), wk =   0.0312500
        k(   38) = (   0.0000000  -0.5773503  -0.1454529), wk =   0.0000000
        k(   39) = (   0.0000000  -0.5773503  -0.4363586), wk =   0.0156250
        k(   40) = (   0.0000000  -0.5773503  -0.8727171), wk =   0.0000000
        k(   41) = (   0.1250000   0.2165064   0.0000000), wk =   0.0312500
        k(   42) = (   0.1250000   0.2165064  -0.4363586), wk =   0.0000000
        k(   43) = (   0.1250000   0.2165064   0.1454529), wk =   0.0625000
        k(   44) = (   0.1250000   0.2165064  -0.2909057), wk =   0.0000000
        k(   45) = (   0.1250000   0.2165064   0.2909057), wk =   0.0625000
        k(   46) = (   0.1250000   0.2165064  -0.1454529), wk =   0.0000000
        k(   47) = (   0.1250000   0.2165064  -0.4363586), wk =   0.0312500
        k(   48) = (   0.1250000   0.2165064  -0.8727171), wk =   0.0000000
        k(   49) = (   0.1250000   0.3608439   0.0000000), wk =   0.0625000
        k(   50) = (   0.1250000   0.3608439  -0.4363586), wk =   0.0000000
        k(   51) = (   0.1250000   0.3608439   0.1454529), wk =   0.1250000
        k(   52) = (   0.1250000   0.3608439  -0.2909057), wk =   0.0000000
        k(   53) = (   0.1250000   0.3608439   0.2909057), wk =   0.1250000
        k(   54) = (   0.1250000   0.3608439  -0.1454529), wk =   0.0000000
        k(   55) = (   0.1250000   0.3608439  -0.4363586), wk =   0.0625000
        k(   56) = (   0.1250000   0.3608439  -0.8727171), wk =   0.0000000
        k(   57) = (   0.1250000   0.5051815   0.0000000), wk =   0.0625000
        k(   58) = (   0.1250000   0.5051815  -0.4363586), wk =   0.0000000
        k(   59) = (   0.1250000   0.5051815   0.1454529), wk =   0.1250000
        k(   60) = (   0.1250000   0.5051815  -0.2909057), wk =   0.0000000
        k(   61) = (   0.1250000   0.5051815   0.2909057), wk =   0.1250000
        k(   62) = (   0.1250000   0.5051815  -0.1454529), wk =   0.0000000
        k(   63) = (   0.1250000   0.5051815  -0.4363586), wk =   0.0625000
        k(   64) = (   0.1250000   0.5051815  -0.8727171), wk =   0.0000000
        k(   65) = (   0.2500000   0.4330127   0.0000000), wk =   0.0312500
        k(   66) = (   0.2500000   0.4330127  -0.4363586), wk =   0.0000000
        k(   67) = (   0.2500000   0.4330127   0.1454529), wk =   0.0625000
        k(   68) = (   0.2500000   0.4330127  -0.2909057), wk =   0.0000000
        k(   69) = (   0.2500000   0.4330127   0.2909057), wk =   0.0625000
        k(   70) = (   0.2500000   0.4330127  -0.1454529), wk =   0.0000000
        k(   71) = (   0.2500000   0.4330127  -0.4363586), wk =   0.0312500
        k(   72) = (   0.2500000   0.4330127  -0.8727171), wk =   0.0000000
        k(   73) = (   0.2500000   0.5773503   0.0000000), wk =   0.0312500
        k(   74) = (   0.2500000   0.5773503  -0.4363586), wk =   0.0000000
        k(   75) = (   0.2500000   0.5773503   0.1454529), wk =   0.0625000
        k(   76) = (   0.2500000   0.5773503  -0.2909057), wk =   0.0000000
        k(   77) = (   0.2500000   0.5773503   0.2909057), wk =   0.0625000
        k(   78) = (   0.2500000   0.5773503  -0.1454529), wk =   0.0000000
        k(   79) = (   0.2500000   0.5773503  -0.4363586), wk =   0.0312500
        k(   80) = (   0.2500000   0.5773503  -0.8727171), wk =   0.0000000

     Dense  grid:    15395 G-vectors     FFT dimensions: (  32,  32,  36)

     Smooth grid:     5449 G-vectors     FFT dimensions: (  24,  24,  25)

     Estimated max dynamical RAM per process >       7.39 MB

     Estimated total dynamical RAM >     473.11 MB

     Check: negative core charge=   -0.000006

     The potential is recalculated from file :
     ./_ph0/pwscf.q_2/pwscf.save/charge-density

     Starting wfcs are   12 atomic wfcs
     Checking if some PAW data can be deallocated... 

     Band Structure Calculation
     Davidson diagonalization with overlap

     ethr =  1.25E-10,  avg # of iterations = 18.8

     total cpu time spent up to now is        0.7 secs

     End of band structure calculation

          k = 0.0000 0.0000 0.0000 (   709 PWs)   bands (ev):

    -4.7856   4.7169   8.0859   8.0859   9.3182  14.0810  14.0810  15.9413

          k = 0.0000 0.0000-0.4364 (   684 PWs)   bands (ev):

    -3.4999   0.2155   8.4616   8.4616  14.4076  14.4076  15.7557  17.7397

          k = 0.0000 0.0000 0.1455 (   697 PWs)   bands (ev):

    -4.5497   3.2122   8.1741   8.1741  11.3828  14.1562  14.1562  15.8936

          k = 0.0000 0.0000-0.2909 (   690 PWs)   bands (ev):

    -3.9413   1.1725   8.3605   8.3605  14.3197  14.3197  15.0532  15.8003

          k = 0.0000 0.0000 0.2909 (   690 PWs)   bands (ev):

    -3.9413   1.1725   8.3605   8.3605  14.3197  14.3197  15.0532  15.8003

          k = 0.0000 0.0000-0.1455 (   697 PWs)   bands (ev):

    -4.5497   3.2122   8.1741   8.1741  11.3828  14.1562  14.1562  15.8936

          k = 0.0000 0.0000-0.4364 (   684 PWs)   bands (ev):

    -3.4999   0.2155   8.4616   8.4616  14.4076  14.4076  15.7557  17.7397

          k = 0.0000 0.0000-0.8727 (   709 PWs)   bands (ev):

    -4.7856   4.7169   8.0859   8.0859   9.3182  14.0810  14.0810  15.9413

          k = 0.0000 0.1443 0.0000 (   697 PWs)   bands (ev):

    -4.5115   4.9838   6.8158   7.5045   9.5673  13.8332  15.2139  16.5109

          k = 0.0000 0.1443-0.4364 (   682 PWs)   bands (ev):

    -3.2517   0.5286   7.2987   7.8539  13.9292  14.3706  15.5756  17.8725

          k = 0.0000 0.1443 0.1455 (   687 PWs)   bands (ev):

    -4.2788   3.4916   6.9279   7.5863  11.5857  13.9801  15.2971  15.4941

          k = 0.0000 0.1443-0.2909 (   686 PWs)   bands (ev):

    -3.6813   1.4711   7.1666   7.7603  14.0267  14.4676  15.4239  15.4769

          k = 0.0000 0.1443 0.2909 (   686 PWs)   bands (ev):

    -3.6813   1.4711   7.1666   7.7603  14.0267  14.4676  15.4239  15.4769

          k = 0.0000 0.1443-0.1455 (   687 PWs)   bands (ev):

    -4.2788   3.4916   6.9279   7.5863  11.5857  13.9801  15.2971  15.4941

          k = 0.0000 0.1443-0.4364 (   682 PWs)   bands (ev):

    -3.2517   0.5286   7.2987   7.8539  13.9292  14.3706  15.5756  17.8725

          k = 0.0000 0.1443-0.8727 (   697 PWs)   bands (ev):

    -4.5115   4.9838   6.8158   7.5045   9.5673  13.8332  15.2139  16.5109

          k = 0.0000 0.2887 0.0000 (   681 PWs)   bands (ev):

    -3.6967   4.3221   5.7684   6.5101  10.2984  13.1165  14.5810  17.0309

          k = 0.0000 0.2887-0.4364 (   690 PWs)   bands (ev):

    -2.5101   1.4487   4.9711   6.8246  10.9392  13.9994  17.7964  18.2336

          k = 0.0000 0.2887 0.1455 (   677 PWs)   bands (ev):

    -3.4736   4.2713   4.5113   6.5843  12.0431  13.1161  13.7450  18.2343

          k = 0.0000 0.2887-0.2909 (   680 PWs)   bands (ev):

    -2.9073   2.3497   4.7869   6.7418  11.5392  13.6809  16.1211  18.0281

          k = 0.0000 0.2887 0.2909 (   680 PWs)   bands (ev):

    -2.9073   2.3497   4.7869   6.7418  11.5392  13.6809  16.1211  18.0281

          k = 0.0000 0.2887-0.1455 (   677 PWs)   bands (ev):

    -3.4736   4.2713   4.5113   6.5843  12.0431  13.1161  13.7450  18.2343

          k = 0.0000 0.2887-0.4364 (   690 PWs)   bands (ev):

    -2.5101   1.4487   4.9711   6.8246  10.9392  13.9994  17.7964  18.2336

          k = 0.0000 0.2887-0.8727 (   681 PWs)   bands (ev):

    -3.6967   4.3221   5.7684   6.5101  10.2984  13.1165  14.5810  17.0309

          k = 0.0000 0.4330 0.0000 (   680 PWs)   bands (ev):

    -2.3685   1.7785   5.7858   6.9746  11.2589  12.1601  12.7086  15.8905

          k = 0.0000 0.4330-0.4364 (   674 PWs)   bands (ev):

    -1.2898   2.5768   2.8878   6.0801   8.1152  13.6288  16.8835  16.9160

          k = 0.0000 0.4330 0.1455 (   681 PWs)   bands (ev):

    -2.1607   1.9432   5.6074   5.8554  10.5142  12.4970  13.9548  17.4168

          k = 0.0000 0.4330-0.2909 (   677 PWs)   bands (ev):

    -1.6419   2.3315   3.7393   6.0026   8.8274  13.2167  16.9740  18.0048

          k = 0.0000 0.4330 0.2909 (   677 PWs)   bands (ev):

    -1.6419   2.3315   3.7393   6.0026   8.8274  13.2167  16.9740  18.0048

          k = 0.0000 0.4330-0.1455 (   681 PWs)   bands (ev):

    -2.1607   1.9432   5.6074   5.8554  10.5142  12.4970  13.9548  17.4168

          k = 0.0000 0.4330-0.4364 (   674 PWs)   bands (ev):

    -1.2898   2.5768   2.8878   6.0801   8.1152  13.6288  16.8835  16.9160

          k = 0.0000 0.4330-0.8727 (   680 PWs)   bands (ev):

    -2.3685   1.7785   5.7858   6.9746  11.2589  12.1601  12.7086  15.8905

          k = 0.0000-0.5774 0.0000 (   676 PWs)   bands (ev):

    -0.8559  -0.1616   5.5309   7.8975  10.7860  11.6276  13.0221  14.8253

          k = 0.0000-0.5774-0.4364 (   676 PWs)   bands (ev):

     0.1220   0.7477   4.1205   5.8185   6.4053  13.4894  16.5345  16.6638

          k = 0.0000-0.5774 0.1455 (   662 PWs)   bands (ev):

    -0.6675   0.0267   5.5994   6.6607   9.0584  12.3432  14.8161  16.3850

          k = 0.0000-0.5774-0.2909 (   670 PWs)   bands (ev):

    -0.1967   0.4723   4.9116   5.7426   7.1851  13.0425  17.1668  18.1844

          k = 0.0000-0.5774 0.2909 (   670 PWs)   bands (ev):

    -0.1967   0.4723   4.9116   5.7426   7.1851  13.0425  17.1668  18.1844

          k = 0.0000-0.5774-0.1455 (   662 PWs)   bands (ev):

    -0.6675   0.0267   5.5994   6.6607   9.0584  12.3432  14.8161  16.3850

          k = 0.0000-0.5774-0.4364 (   676 PWs)   bands (ev):

     0.1220   0.7477   4.1205   5.8185   6.4053  13.4894  16.5345  16.6638

          k = 0.0000-0.5774-0.8727 (   676 PWs)   bands (ev):

    -0.8559  -0.1616   5.5309   7.8975  10.7860  11.6276  13.0221  14.8253

          k = 0.1250 0.2165 0.0000 (   683 PWs)   bands (ev):

    -3.9670   5.3525   5.5107   6.2399  10.1196  14.3722  15.2175  15.2975

          k = 0.1250 0.2165-0.4364 (   682 PWs)   bands (ev):

    -2.7568   1.1457   5.9356   6.6474  11.8775  14.9549  16.3499  16.4235

          k = 0.1250 0.2165 0.1455 (   679 PWs)   bands (ev):

    -3.7408   4.0413   5.4799   6.3476  12.0822  13.8398  14.5571  15.8796

          k = 0.1250 0.2165-0.2909 (   685 PWs)   bands (ev):

    -3.1643   2.0605   5.7683   6.5431  12.4480  14.5930  15.8917  16.1987

          k = 0.1250 0.2165 0.2909 (   685 PWs)   bands (ev):

    -3.1643   2.0605   5.7683   6.5431  12.4480  14.5930  15.8917  16.1987

          k = 0.1250 0.2165-0.1455 (   679 PWs)   bands (ev):

    -3.7408   4.0413   5.4799   6.3476  12.0822  13.8398  14.5571  15.8796

          k = 0.1250 0.2165-0.4364 (   682 PWs)   bands (ev):

    -2.7568   1.1457   5.9356   6.6474  11.8775  14.9549  16.3499  16.4235

          k = 0.1250 0.2165-0.8727 (   683 PWs)   bands (ev):

    -3.9670   5.3525   5.5107   6.2399  10.1196  14.3722  15.2175  15.2975

          k = 0.1250 0.3608 0.0000 (   678 PWs)   bands (ev):

    -2.8949   3.1145   5.0533   6.5268  11.1381  13.1161  13.9464  16.0830

          k = 0.1250 0.3608-0.4364 (   684 PWs)   bands (ev):

    -1.7752   2.3358   3.8319   5.5062   9.3326  14.6279  15.0106  18.3460

          k = 0.1250 0.3608 0.1455 (   678 PWs)   bands (ev):

    -2.6811   3.2634   5.0257   5.2573  11.6306  13.0288  14.3950  16.9027

          k = 0.1250 0.3608-0.2909 (   681 PWs)   bands (ev):

    -2.1440   3.1892   3.6319   5.3876  10.0070  14.5092  15.3880  17.0386

          k = 0.1250 0.3608 0.2909 (   681 PWs)   bands (ev):

    -2.1440   3.1892   3.6319   5.3876  10.0070  14.5092  15.3880  17.0386

          k = 0.1250 0.3608-0.1455 (   678 PWs)   bands (ev):

    -2.6811   3.2634   5.0257   5.2573  11.6306  13.0288  14.3950  16.9027

          k = 0.1250 0.3608-0.4364 (   684 PWs)   bands (ev):

    -1.7752   2.3358   3.8319   5.5062   9.3326  14.6279  15.0106  18.3460

          k = 0.1250 0.3608-0.8727 (   678 PWs)   bands (ev):

    -2.8949   3.1145   5.0533   6.5268  11.1381  13.1161  13.9464  16.0830

          k = 0.1250 0.5052 0.0000 (   676 PWs)   bands (ev):

    -1.3501   0.7970   4.5022   7.8042  11.0973  12.3783  13.3638  15.3847

          k = 0.1250 0.5052-0.4364 (   678 PWs)   bands (ev):

    -0.3454   1.6501   3.8935   4.9668   6.9904  13.7677  14.7869  19.8646

          k = 0.1250 0.5052 0.1455 (   674 PWs)   bands (ev):

    -1.1540   0.9720   4.6047   6.5055   9.5495  13.5675  14.6325  16.1078

          k = 0.1250 0.5052-0.2909 (   674 PWs)   bands (ev):

    -0.6687   1.3888   4.6816   4.8579   7.7472  13.9772  14.9298  18.0308

          k = 0.1250 0.5052 0.2909 (   674 PWs)   bands (ev):

    -0.6687   1.3888   4.6816   4.8579   7.7472  13.9772  14.9298  18.0308

          k = 0.1250 0.5052-0.1455 (   674 PWs)   bands (ev):

    -1.1540   0.9720   4.6047   6.5055   9.5495  13.5675  14.6325  16.1078

          k = 0.1250 0.5052-0.4364 (   678 PWs)   bands (ev):

    -0.3454   1.6501   3.8935   4.9668   6.9904  13.7677  14.7869  19.8646

          k = 0.1250 0.5052-0.8727 (   676 PWs)   bands (ev):

    -1.3501   0.7970   4.5022   7.8042  11.0973  12.3783  13.3638  15.3847

          k = 0.2500 0.4330 0.0000 (   673 PWs)   bands (ev):

    -1.5955   1.9992   3.1104   7.7211  11.4346  12.3899  14.7394  16.0952

          k = 0.2500 0.4330-0.4364 (   674 PWs)   bands (ev):

    -0.5748   2.7987   3.7030   3.7188   7.6358  12.4494  17.2204  18.2374

          k = 0.2500 0.4330 0.1455 (   684 PWs)   bands (ev):

    -1.3965   2.1623   3.2397   6.3799  10.0624  14.1966  14.9079  16.2485

          k = 0.2500 0.4330-0.2909 (   678 PWs)   bands (ev):

    -0.9037   2.5530   3.5246   4.5533   8.3547  13.1327  16.8169  17.8007

          k = 0.2500 0.4330 0.2909 (   678 PWs)   bands (ev):

    -0.9037   2.5530   3.5246   4.5533   8.3547  13.1327  16.8169  17.8007

          k = 0.2500 0.4330-0.1455 (   684 PWs)   bands (ev):

    -1.3965   2.1623   3.2397   6.3799  10.0624  14.1966  14.9079  16.2485

          k = 0.2500 0.4330-0.4364 (   674 PWs)   bands (ev):

    -0.5748   2.7987   3.7030   3.7188   7.6358  12.4494  17.2204  18.2374

          k = 0.2500 0.4330-0.8727 (   673 PWs)   bands (ev):

    -1.5955   1.9992   3.1104   7.7211  11.4346  12.3899  14.7394  16.0952

          k = 0.2500 0.5774 0.0000 (   680 PWs)   bands (ev):

    -0.1355   0.4820   2.5194   8.8027  10.1696  13.5154  13.9628  16.3914

          k = 0.2500 0.5774-0.4364 (   678 PWs)   bands (ev):

     0.7975   1.3487   3.1679   5.0033   6.2590  11.6945  17.5170  20.5975

          k = 0.2500 0.5774 0.1455 (   675 PWs)   bands (ev):

     0.0469   0.6595   2.6610   7.5259   8.7900  14.3040  15.3094  15.5921

          k = 0.2500 0.5774-0.2909 (   675 PWs)   bands (ev):

     0.4980   1.0833   2.9805   5.7780   7.0195  12.4177  17.1680  18.4886

          k = 0.2500 0.5774 0.2909 (   675 PWs)   bands (ev):

     0.4980   1.0833   2.9805   5.7780   7.0195  12.4177  17.1680  18.4886

          k = 0.2500 0.5774-0.1455 (   675 PWs)   bands (ev):

     0.0469   0.6595   2.6610   7.5259   8.7900  14.3040  15.3094  15.5921

          k = 0.2500 0.5774-0.4364 (   678 PWs)   bands (ev):

     0.7975   1.3487   3.1679   5.0033   6.2590  11.6945  17.5170  20.5975

          k = 0.2500 0.5774-0.8727 (   680 PWs)   bands (ev):

    -0.1355   0.4820   2.5194   8.8027  10.1696  13.5154  13.9628  16.3914

     the Fermi energy is     7.6604 ev
 
     [dfpt_tetra]  Dos(E_F)[/Ry] :   0.8845642E+01

     Phonon                                                                     

     bravais-lattice index     =            0
     lattice parameter (alat)  =       5.8042  a.u.
     unit-cell volume          =     194.0373 (a.u.)^3
     number of atoms/cell      =            3
     number of atomic types    =            2
     kinetic-energy cut-off    =      35.0000  Ry
     charge density cut-off    =     280.0000  Ry
     convergence threshold     =      1.0E-15
     beta                      =       0.3000
     number of iterations used =            4
     Exchange-correlation= PBE
                           (   1   4   3   4   0   0   0)


     celldm(1)=    5.80420  celldm(2)=    0.00000  celldm(3)=    0.00000
     celldm(4)=    0.00000  celldm(5)=    0.00000  celldm(6)=    0.00000

     crystal axes: (cart. coord. in units of alat)
               a(1) = (  1.0000  0.0000  0.0000 )  
               a(2) = ( -0.5000  0.8660  0.0000 )  
               a(3) = (  0.0000  0.0000  1.1458 )  

     reciprocal axes: (cart. coord. in units 2 pi/alat)
               b(1) = (  1.0000  0.5774  0.0000 )  
               b(2) = (  0.0000  1.1547  0.0000 )  
               b(3) = (  0.0000  0.0000  0.8727 )  


     Atoms inside the unit cell: 

     Cartesian axes

     site n.  atom      mass           positions (alat units)
        1  Mg     24.3050   tau(    1) = (    0.00000    0.00000    0.00000  )
        2  B      10.8110   tau(    2) = (   -0.00000    0.57735    0.57292  )
        3  B      10.8110   tau(    3) = (    0.50000    0.28868    0.57292  )

     Computing dynamical matrix for 
                    q = (   0.0000000   0.0000000  -0.4363586 )
 
     25 Sym.Ops. (with q -> -q+G )


     G cutoff =  238.9372  (  15395 G-vectors)     FFT grid: ( 32, 32, 36)
     G cutoff =  119.4686  (   5449 G-vectors)  smooth grid: ( 24, 24, 25)
     number of k points=    80

     PseudoPot. # 1 for B  read from file:
     ./B.pbe-n-kjpaw_psl.0.1.upf
     MD5 check sum: b4345a612e0782cca08559f453f3313f
     Pseudo is Projector augmented-wave + core cor, Zval =  3.0
     Generated using "atomic" code by A. Dal Corso  v.5.0.99 svn rev. 10869
     Shape of augmentation charge: BESSEL
     Using radial grid of 1059 points,  4 beta functions with: 
                l(1) =   0
                l(2) =   0
                l(3) =   1
                l(4) =   1
     Q(r) pseudized with 0 coefficients 


     PseudoPot. # 2 for Mg read from file:
     ./Mg.pbe-n-kjpaw_psl.0.3.0.upf
     MD5 check sum: 9eaefceb6cf3903db1b93e4e5c6adf9a
     Pseudo is Projector augmented-wave + core cor, Zval =  2.0
     Generated using "atomic" code by A. Dal Corso  v.5.0.99 svn rev. 10869
     Shape of augmentation charge: PSQ
     Using radial grid of 1129 points,  4 beta functions with: 
                l(1) =   0
                l(2) =   0
                l(3) =   1
                l(4) =   1
     Q(r) pseudized with 0 coefficients 



     Atomic displacements:
     There are    6 irreducible representations

     Representation     1      1 modes -  To be done

     Representation     2      1 modes -  To be done

     Representation     3      2 modes -  To be done

     Representation     4      1 modes -  To be done

     Representation     5      2 modes -  To be done

     Representation     6      2 modes -  To be done



     Alpha used in Ewald sum =   2.8000
     PHONON       :     18.61s CPU     20.27s WALL



     Representation #   1 mode #   1

     Self-consistent Calculation

      iter #   1 total cpu time :    20.5 secs   av.it.:   2.5
      thresh= 1.000E-02 alpha_mix =  0.300 |ddv_scf|^2 =  8.764E-05

      iter #   2 total cpu time :    20.7 secs   av.it.:   4.6
      thresh= 9.362E-04 alpha_mix =  0.300 |ddv_scf|^2 =  1.126E-04

      iter #   3 total cpu time :    21.0 secs   av.it.:   4.4
      thresh= 1.061E-03 alpha_mix =  0.300 |ddv_scf|^2 =  2.244E-08

      iter #   4 total cpu time :    21.2 secs   av.it.:   4.7
      thresh= 1.498E-05 alpha_mix =  0.300 |ddv_scf|^2 =  7.942E-09

      iter #   5 total cpu time :    21.4 secs   av.it.:   4.9
      thresh= 8.912E-06 alpha_mix =  0.300 |ddv_scf|^2 =  2.304E-11

      iter #   6 total cpu time :    21.6 secs   av.it.:   5.2
      thresh= 4.800E-07 alpha_mix =  0.300 |ddv_scf|^2 =  3.797E-12

      iter #   7 total cpu time :    21.9 secs   av.it.:   4.7
      thresh= 1.949E-07 alpha_mix =  0.300 |ddv_scf|^2 =  2.744E-14

      iter #   8 total cpu time :    22.1 secs   av.it.:   4.3
      thresh= 1.656E-08 alpha_mix =  0.300 |ddv_scf|^2 =  1.221E-14

      iter #   9 total cpu time :    22.3 secs   av.it.:   5.0
      thresh= 1.105E-08 alpha_mix =  0.300 |ddv_scf|^2 =  4.737E-16

     End of self-consistent calculation

     Convergence has been achieved 


     Representation #   2 mode #   2

     Self-consistent Calculation

      iter #   1 total cpu time :    22.6 secs   av.it.:   3.4
      thresh= 1.000E-02 alpha_mix =  0.300 |ddv_scf|^2 =  3.076E-04

      iter #   2 total cpu time :    22.8 secs   av.it.:   4.6
      thresh= 1.754E-03 alpha_mix =  0.300 |ddv_scf|^2 =  5.741E-05

      iter #   3 total cpu time :    23.0 secs   av.it.:   4.5
      thresh= 7.577E-04 alpha_mix =  0.300 |ddv_scf|^2 =  7.723E-08

      iter #   4 total cpu time :    23.2 secs   av.it.:   5.0
      thresh= 2.779E-05 alpha_mix =  0.300 |ddv_scf|^2 =  7.675E-09

      iter #   5 total cpu time :    23.5 secs   av.it.:   5.1
      thresh= 8.761E-06 alpha_mix =  0.300 |ddv_scf|^2 =  1.793E-10

      iter #   6 total cpu time :    23.7 secs   av.it.:   5.5
      thresh= 1.339E-06 alpha_mix =  0.300 |ddv_scf|^2 =  2.480E-12

      iter #   7 total cpu time :    23.9 secs   av.it.:   4.4
      thresh= 1.575E-07 alpha_mix =  0.300 |ddv_scf|^2 =  8.965E-13

      iter #   8 total cpu time :    24.1 secs   av.it.:   5.4
      thresh= 9.468E-08 alpha_mix =  0.300 |ddv_scf|^2 =  7.074E-16

     End of self-consistent calculation

     Convergence has been achieved 


     Representation #   3 modes #   3   4

     Self-consistent Calculation

      iter #   1 total cpu time :    24.6 secs   av.it.:   2.7
      thresh= 1.000E-02 alpha_mix =  0.300 |ddv_scf|^2 =  2.555E-07

      iter #   2 total cpu time :    25.0 secs   av.it.:   5.6
      thresh= 5.055E-05 alpha_mix =  0.300 |ddv_scf|^2 =  7.967E-08

      iter #   3 total cpu time :    25.4 secs   av.it.:   5.7
      thresh= 2.823E-05 alpha_mix =  0.300 |ddv_scf|^2 =  3.484E-09

      iter #   4 total cpu time :    25.8 secs   av.it.:   5.2
      thresh= 5.902E-06 alpha_mix =  0.300 |ddv_scf|^2 =  5.064E-11

      iter #   5 total cpu time :    26.2 secs   av.it.:   5.8
      thresh= 7.116E-07 alpha_mix =  0.300 |ddv_scf|^2 =  1.445E-11

      iter #   6 total cpu time :    26.7 secs   av.it.:   5.2
      thresh= 3.801E-07 alpha_mix =  0.300 |ddv_scf|^2 =  1.078E-15

      iter #   7 total cpu time :    27.1 secs   av.it.:   6.5
      thresh= 3.284E-09 alpha_mix =  0.300 |ddv_scf|^2 =  3.116E-16

     End of self-consistent calculation

     Convergence has been achieved 


     Representation #   4 mode #   5

     Self-consistent Calculation

      iter #   1 total cpu time :    27.4 secs   av.it.:   2.2
      thresh= 1.000E-02 alpha_mix =  0.300 |ddv_scf|^2 =  2.703E-07

      iter #   2 total cpu time :    27.6 secs   av.it.:   4.6
      thresh= 5.199E-05 alpha_mix =  0.300 |ddv_scf|^2 =  1.273E-07

      iter #   3 total cpu time :    27.8 secs   av.it.:   4.7
      thresh= 3.568E-05 alpha_mix =  0.300 |ddv_scf|^2 =  1.708E-09

      iter #   4 total cpu time :    28.0 secs   av.it.:   5.2
      thresh= 4.133E-06 alpha_mix =  0.300 |ddv_scf|^2 =  1.176E-10

      iter #   5 total cpu time :    28.3 secs   av.it.:   5.3
      thresh= 1.084E-06 alpha_mix =  0.300 |ddv_scf|^2 =  1.533E-11

      iter #   6 total cpu time :    28.5 secs   av.it.:   5.2
      thresh= 3.916E-07 alpha_mix =  0.300 |ddv_scf|^2 =  3.165E-14

      iter #   7 total cpu time :    28.7 secs   av.it.:   5.7
      thresh= 1.779E-08 alpha_mix =  0.300 |ddv_scf|^2 =  8.549E-16

     End of self-consistent calculation

     Convergence has been achieved 


     Representation #   5 modes #   6   7

     Self-consistent Calculation

      iter #   1 total cpu time :    29.1 secs   av.it.:   2.5
      thresh= 1.000E-02 alpha_mix =  0.300 |ddv_scf|^2 =  7.734E-08

      iter #   2 total cpu time :    29.4 secs   av.it.:   5.4
      thresh= 2.781E-05 alpha_mix =  0.300 |ddv_scf|^2 =  3.427E-08

      iter #   3 total cpu time :    29.7 secs   av.it.:   5.5
      thresh= 1.851E-05 alpha_mix =  0.300 |ddv_scf|^2 =  9.706E-10

      iter #   4 total cpu time :    30.1 secs   av.it.:   5.6
      thresh= 3.115E-06 alpha_mix =  0.300 |ddv_scf|^2 =  3.140E-11

      iter #   5 total cpu time :    30.4 secs   av.it.:   5.5
      thresh= 5.603E-07 alpha_mix =  0.300 |ddv_scf|^2 =  7.350E-12

      iter #   6 total cpu time :    30.8 secs   av.it.:   5.5
      thresh= 2.711E-07 alpha_mix =  0.300 |ddv_scf|^2 =  1.135E-15

      iter #   7 total cpu time :    31.1 secs   av.it.:   6.1
      thresh= 3.369E-09 alpha_mix =  0.300 |ddv_scf|^2 =  3.672E-16

     End of self-consistent calculation

     Convergence has been achieved 


     Representation #   6 modes #   8   9

     Self-consistent Calculation

      iter #   1 total cpu time :    31.5 secs   av.it.:   1.6
      thresh= 1.000E-02 alpha_mix =  0.300 |ddv_scf|^2 =  1.873E-08

      iter #   2 total cpu time :    31.9 secs   av.it.:   5.2
      thresh= 1.369E-05 alpha_mix =  0.300 |ddv_scf|^2 =  9.062E-09

      iter #   3 total cpu time :    32.2 secs   av.it.:   5.0
      thresh= 9.519E-06 alpha_mix =  0.300 |ddv_scf|^2 =  1.795E-11

      iter #   4 total cpu time :    32.6 secs   av.it.:   5.5
      thresh= 4.237E-07 alpha_mix =  0.300 |ddv_scf|^2 =  4.910E-12

      iter #   5 total cpu time :    32.9 secs   av.it.:   5.5
      thresh= 2.216E-07 alpha_mix =  0.300 |ddv_scf|^2 =  4.995E-14

      iter #   6 total cpu time :    33.3 secs   av.it.:   5.6
      thresh= 2.235E-08 alpha_mix =  0.300 |ddv_scf|^2 =  2.913E-16

     End of self-consistent calculation

     Convergence has been achieved 
 
     Number of q in the star =    1
     List of q in the star:
          1   0.000000000   0.000000000  -0.436358562

     Diagonalizing the dynamical matrix

     q = (    0.000000000   0.000000000  -0.436358562 ) 

 **************************************************************************
     freq (    1) =       6.771099 [THz] =     225.859565 [cm-1]
     freq (    2) =       6.771099 [THz] =     225.859565 [cm-1]
     freq (    3) =       7.133844 [THz] =     237.959408 [cm-1]
     freq (    4) =       7.133844 [THz] =     237.959408 [cm-1]
     freq (    5) =       9.591613 [THz] =     319.941778 [cm-1]
     freq (    6) =      12.099974 [THz] =     403.611695 [cm-1]
     freq (    7) =      16.563582 [THz] =     552.501641 [cm-1]
     freq (    8) =      16.563582 [THz] =     552.501641 [cm-1]
     freq (    9) =      19.479162 [THz] =     649.754911 [cm-1]
 **************************************************************************

     Calculation of q =    0.0000000   0.2886751   0.1454529
     [opt_tetra]  Optimized tetrahedron method is used.
 
     G-vector sticks info
     --------------------
     sticks:   dense  smooth     PW     G-vecs:    dense   smooth      PW
     Sum         649     313    121                15395     5449    1131
 
     Using Slab Decomposition
 

     Title: 
     Phonon                                                                     


     bravais-lattice index     =            0
     lattice parameter (alat)  =       5.8042  a.u.
     unit-cell volume          =     194.0373 (a.u.)^3
     number of atoms/cell      =            3
     number of atomic types    =            2
     number of electrons       =         8.00
     number of Kohn-Sham states=            8
     kinetic-energy cutoff     =      35.0000  Ry
     charge density cutoff     =     280.0000  Ry
     Exchange-correlation= PBE
                           (   1   4   3   4   0   0   0)

     celldm(1)=   5.804205  celldm(2)=   0.000000  celldm(3)=   0.000000
     celldm(4)=   0.000000  celldm(5)=   0.000000  celldm(6)=   0.000000

     crystal axes: (cart. coord. in units of alat)
               a(1) = (   1.000000   0.000000   0.000000 )  
               a(2) = (  -0.500000   0.866025   0.000000 )  
               a(3) = (   0.000000   0.000000   1.145847 )  

     reciprocal axes: (cart. coord. in units 2 pi/alat)
               b(1) = (  1.000000  0.577350  0.000000 )  
               b(2) = (  0.000000  1.154701  0.000000 )  
               b(3) = (  0.000000  0.000000  0.872717 )  


     PseudoPot. # 1 for B  read from file:
     ./B.pbe-n-kjpaw_psl.0.1.upf
     MD5 check sum: b4345a612e0782cca08559f453f3313f
     Pseudo is Projector augmented-wave + core cor, Zval =  3.0
     Generated using "atomic" code by A. Dal Corso  v.5.0.99 svn rev. 10869
     Shape of augmentation charge: BESSEL
     Using radial grid of 1059 points,  4 beta functions with: 
                l(1) =   0
                l(2) =   0
                l(3) =   1
                l(4) =   1
     Q(r) pseudized with 0 coefficients 


     PseudoPot. # 2 for Mg read from file:
     ./Mg.pbe-n-kjpaw_psl.0.3.0.upf
     MD5 check sum: 9eaefceb6cf3903db1b93e4e5c6adf9a
     Pseudo is Projector augmented-wave + core cor, Zval =  2.0
     Generated using "atomic" code by A. Dal Corso  v.5.0.99 svn rev. 10869
     Shape of augmentation charge: PSQ
     Using radial grid of 1129 points,  4 beta functions with: 
                l(1) =   0
                l(2) =   0
                l(3) =   1
                l(4) =   1
     Q(r) pseudized with 0 coefficients 


     atomic species   valence    mass     pseudopotential
     B                 3.00    10.81100     B ( 1.00)
     Mg                2.00    24.30500     Mg( 1.00)

     24 Sym. Ops., with inversion, found



   Cartesian axes

     site n.     atom                  positions (alat units)
         1        Mg     tau(   1) = (   0.0000000   0.0000000   0.0000000  )
         2        B      tau(   2) = (  -0.0000000   0.5773503   0.5729233  )
         3        B      tau(   3) = (   0.5000000   0.2886751   0.5729233  )

     number of k points=   432 (tetrahedron method)

     Number of k-points >= 100: set verbosity='high' to print them.

     Dense  grid:    15395 G-vectors     FFT dimensions: (  32,  32,  36)

     Smooth grid:     5449 G-vectors     FFT dimensions: (  24,  24,  25)

     Estimated max dynamical RAM per process >       7.88 MB

     Estimated total dynamical RAM >     504.54 MB

     Check: negative core charge=   -0.000006

     The potential is recalculated from file :
     ./_ph0/pwscf.q_3/pwscf.save/charge-density

     Starting wfcs are   12 atomic wfcs
     Checking if some PAW data can be deallocated... 

     Band Structure Calculation
     Davidson diagonalization with overlap

     ethr =  1.25E-10,  avg # of iterations = 20.1

     total cpu time spent up to now is        1.1 secs

     End of band structure calculation

     Number of k-points >= 100: set verbosity='high' to print the bands.

     the Fermi energy is     7.6604 ev
 
     [dfpt_tetra]  Dos(E_F)[/Ry] :   0.8845642E+01

     Phonon                                                                     

     bravais-lattice index     =            0
     lattice parameter (alat)  =       5.8042  a.u.
     unit-cell volume          =     194.0373 (a.u.)^3
     number of atoms/cell      =            3
     number of atomic types    =            2
     kinetic-energy cut-off    =      35.0000  Ry
     charge density cut-off    =     280.0000  Ry
     convergence threshold     =      1.0E-15
     beta                      =       0.3000
     number of iterations used =            4
     Exchange-correlation= PBE
                           (   1   4   3   4   0   0   0)


     celldm(1)=    5.80420  celldm(2)=    0.00000  celldm(3)=    0.00000
     celldm(4)=    0.00000  celldm(5)=    0.00000  celldm(6)=    0.00000

     crystal axes: (cart. coord. in units of alat)
               a(1) = (  1.0000  0.0000  0.0000 )  
               a(2) = ( -0.5000  0.8660  0.0000 )  
               a(3) = (  0.0000  0.0000  1.1458 )  

     reciprocal axes: (cart. coord. in units 2 pi/alat)
               b(1) = (  1.0000  0.5774  0.0000 )  
               b(2) = (  0.0000  1.1547  0.0000 )  
               b(3) = (  0.0000  0.0000  0.8727 )  


     Atoms inside the unit cell: 

     Cartesian axes

     site n.  atom      mass           positions (alat units)
        1  Mg     24.3050   tau(    1) = (    0.00000    0.00000    0.00000  )
        2  B      10.8110   tau(    2) = (   -0.00000    0.57735    0.57292  )
        3  B      10.8110   tau(    3) = (    0.50000    0.28868    0.57292  )

     Computing dynamical matrix for 
                    q = (   0.0000000   0.2886751   0.1454529 )
 
      2 Sym.Ops. (no q -> -q+G )


     G cutoff =  238.9372  (  15395 G-vectors)     FFT grid: ( 32, 32, 36)
     G cutoff =  119.4686  (   5449 G-vectors)  smooth grid: ( 24, 24, 25)
     number of k points=   432

     PseudoPot. # 1 for B  read from file:
     ./B.pbe-n-kjpaw_psl.0.1.upf
     MD5 check sum: b4345a612e0782cca08559f453f3313f
     Pseudo is Projector augmented-wave + core cor, Zval =  3.0
     Generated using "atomic" code by A. Dal Corso  v.5.0.99 svn rev. 10869
     Shape of augmentation charge: BESSEL
     Using radial grid of 1059 points,  4 beta functions with: 
                l(1) =   0
                l(2) =   0
                l(3) =   1
                l(4) =   1
     Q(r) pseudized with 0 coefficients 


     PseudoPot. # 2 for Mg read from file:
     ./Mg.pbe-n-kjpaw_psl.0.3.0.upf
     MD5 check sum: 9eaefceb6cf3903db1b93e4e5c6adf9a
     Pseudo is Projector augmented-wave + core cor, Zval =  2.0
     Generated using "atomic" code by A. Dal Corso  v.5.0.99 svn rev. 10869
     Shape of augmentation charge: PSQ
     Using radial grid of 1129 points,  4 beta functions with: 
                l(1) =   0
                l(2) =   0
                l(3) =   1
                l(4) =   1
     Q(r) pseudized with 0 coefficients 



     Atomic displacements:
     There are    9 irreducible representations

     Representation     1      1 modes -  To be done

     Representation     2      1 modes -  To be done

     Representation     3      1 modes -  To be done

     Representation     4      1 modes -  To be done

     Representation     5      1 modes -  To be done

     Representation     6      1 modes -  To be done

     Representation     7      1 modes -  To be done

     Representation     8      1 modes -  To be done

     Representation     9      1 modes -  To be done



     Alpha used in Ewald sum =   2.8000
     PHONON       :     32.92s CPU     35.33s WALL



     Representation #   1 mode #   1

     Self-consistent Calculation

      iter #   1 total cpu time :    35.5 secs   av.it.:   3.3
      thresh= 1.000E-02 alpha_mix =  0.300 |ddv_scf|^2 =  4.600E-04

      iter #   2 total cpu time :    35.8 secs   av.it.:   5.5
      thresh= 2.145E-03 alpha_mix =  0.300 |ddv_scf|^2 =  1.657E-03

      iter #   3 total cpu time :    36.0 secs   av.it.:   4.5
      thresh= 4.070E-03 alpha_mix =  0.300 |ddv_scf|^2 =  2.425E-07

      iter #   4 total cpu time :    36.2 secs   av.it.:   6.9
      thresh= 4.924E-05 alpha_mix =  0.300 |ddv_scf|^2 =  4.213E-08

      iter #   5 total cpu time :    36.4 secs   av.it.:   6.3
      thresh= 2.053E-05 alpha_mix =  0.300 |ddv_scf|^2 =  7.007E-09

      iter #   6 total cpu time :    36.6 secs   av.it.:   6.5
      thresh= 8.371E-06 alpha_mix =  0.300 |ddv_scf|^2 =  1.293E-09

      iter #   7 total cpu time :    36.9 secs   av.it.:   5.9
      thresh= 3.596E-06 alpha_mix =  0.300 |ddv_scf|^2 =  1.558E-09

      iter #   8 total cpu time :    37.1 secs   av.it.:   5.7
      thresh= 3.948E-06 alpha_mix =  0.300 |ddv_scf|^2 =  4.100E-10

      iter #   9 total cpu time :    37.3 secs   av.it.:   5.0
      thresh= 2.025E-06 alpha_mix =  0.300 |ddv_scf|^2 =  1.147E-10

      iter #  10 total cpu time :    37.5 secs   av.it.:   6.0
      thresh= 1.071E-06 alpha_mix =  0.300 |ddv_scf|^2 =  1.097E-11

      iter #  11 total cpu time :    37.7 secs   av.it.:   6.5
      thresh= 3.312E-07 alpha_mix =  0.300 |ddv_scf|^2 =  1.978E-12

      iter #  12 total cpu time :    38.0 secs   av.it.:   5.9
      thresh= 1.406E-07 alpha_mix =  0.300 |ddv_scf|^2 =  4.653E-13

      iter #  13 total cpu time :    38.2 secs   av.it.:   6.7
      thresh= 6.821E-08 alpha_mix =  0.300 |ddv_scf|^2 =  5.546E-14

      iter #  14 total cpu time :    38.4 secs   av.it.:   6.0
      thresh= 2.355E-08 alpha_mix =  0.300 |ddv_scf|^2 =  2.433E-14

      iter #  15 total cpu time :    38.6 secs   av.it.:   6.0
      thresh= 1.560E-08 alpha_mix =  0.300 |ddv_scf|^2 =  5.528E-15

      iter #  16 total cpu time :    38.9 secs   av.it.:   6.1
      thresh= 7.435E-09 alpha_mix =  0.300 |ddv_scf|^2 =  1.797E-16

     End of self-consistent calculation

     Convergence has been achieved 


     Representation #   2 mode #   2

     Self-consistent Calculation

      iter #   1 total cpu time :    39.1 secs   av.it.:   2.4
      thresh= 1.000E-02 alpha_mix =  0.300 |ddv_scf|^2 =  5.392E-05

      iter #   2 total cpu time :    39.3 secs   av.it.:   5.6
      thresh= 7.343E-04 alpha_mix =  0.300 |ddv_scf|^2 =  1.999E-04

      iter #   3 total cpu time :    39.6 secs   av.it.:   4.5
      thresh= 1.414E-03 alpha_mix =  0.300 |ddv_scf|^2 =  3.783E-08

      iter #   4 total cpu time :    39.8 secs   av.it.:   6.6
      thresh= 1.945E-05 alpha_mix =  0.300 |ddv_scf|^2 =  9.234E-09

      iter #   5 total cpu time :    40.0 secs   av.it.:   5.9
      thresh= 9.610E-06 alpha_mix =  0.300 |ddv_scf|^2 =  1.733E-09

      iter #   6 total cpu time :    40.3 secs   av.it.:   6.0
      thresh= 4.163E-06 alpha_mix =  0.300 |ddv_scf|^2 =  9.837E-11

      iter #   7 total cpu time :    40.5 secs   av.it.:   6.4
      thresh= 9.918E-07 alpha_mix =  0.300 |ddv_scf|^2 =  6.778E-12

      iter #   8 total cpu time :    40.7 secs   av.it.:   6.2
      thresh= 2.603E-07 alpha_mix =  0.300 |ddv_scf|^2 =  1.632E-11

      iter #   9 total cpu time :    40.9 secs   av.it.:   4.7
      thresh= 4.040E-07 alpha_mix =  0.300 |ddv_scf|^2 =  6.051E-13

      iter #  10 total cpu time :    41.2 secs   av.it.:   6.5
      thresh= 7.779E-08 alpha_mix =  0.300 |ddv_scf|^2 =  3.587E-13

      iter #  11 total cpu time :    41.4 secs   av.it.:   5.8
      thresh= 5.989E-08 alpha_mix =  0.300 |ddv_scf|^2 =  1.378E-14

      iter #  12 total cpu time :    41.6 secs   av.it.:   6.3
      thresh= 1.174E-08 alpha_mix =  0.300 |ddv_scf|^2 =  3.880E-15

      iter #  13 total cpu time :    41.8 secs   av.it.:   6.5
      thresh= 6.229E-09 alpha_mix =  0.300 |ddv_scf|^2 =  5.769E-16

     End of self-consistent calculation

     Convergence has been achieved 


     Representation #   3 mode #   3

     Self-consistent Calculation

      iter #   1 total cpu time :    42.1 secs   av.it.:   2.8
      thresh= 1.000E-02 alpha_mix =  0.300 |ddv_scf|^2 =  9.192E-07

      iter #   2 total cpu time :    42.4 secs   av.it.:   5.9
      thresh= 9.587E-05 alpha_mix =  0.300 |ddv_scf|^2 =  2.759E-07

      iter #   3 total cpu time :    42.6 secs   av.it.:   6.1
      thresh= 5.253E-05 alpha_mix =  0.300 |ddv_scf|^2 =  1.564E-08

      iter #   4 total cpu time :    42.8 secs   av.it.:   6.0
      thresh= 1.251E-05 alpha_mix =  0.300 |ddv_scf|^2 =  2.262E-10

      iter #   5 total cpu time :    43.0 secs   av.it.:   6.2
      thresh= 1.504E-06 alpha_mix =  0.300 |ddv_scf|^2 =  6.915E-11

      iter #   6 total cpu time :    43.4 secs   av.it.:   5.9
      thresh= 8.316E-07 alpha_mix =  0.300 |ddv_scf|^2 =  6.555E-13

      iter #   7 total cpu time :    43.6 secs   av.it.:   6.8
      thresh= 8.097E-08 alpha_mix =  0.300 |ddv_scf|^2 =  5.379E-15

      iter #   8 total cpu time :    43.9 secs   av.it.:   6.8
      thresh= 7.334E-09 alpha_mix =  0.300 |ddv_scf|^2 =  3.313E-16

     End of self-consistent calculation

     Convergence has been achieved 


     Representation #   4 mode #   4

     Self-consistent Calculation

      iter #   1 total cpu time :    44.1 secs   av.it.:   2.8
      thresh= 1.000E-02 alpha_mix =  0.300 |ddv_scf|^2 =  9.192E-07

      iter #   2 total cpu time :    44.4 secs   av.it.:   5.9
      thresh= 9.587E-05 alpha_mix =  0.300 |ddv_scf|^2 =  2.759E-07

      iter #   3 total cpu time :    44.6 secs   av.it.:   6.1
      thresh= 5.253E-05 alpha_mix =  0.300 |ddv_scf|^2 =  1.564E-08

      iter #   4 total cpu time :    44.8 secs   av.it.:   6.0
      thresh= 1.251E-05 alpha_mix =  0.300 |ddv_scf|^2 =  2.262E-10

      iter #   5 total cpu time :    45.0 secs   av.it.:   6.2
      thresh= 1.504E-06 alpha_mix =  0.300 |ddv_scf|^2 =  6.915E-11

      iter #   6 total cpu time :    45.3 secs   av.it.:   5.9
      thresh= 8.316E-07 alpha_mix =  0.300 |ddv_scf|^2 =  6.555E-13

      iter #   7 total cpu time :    45.5 secs   av.it.:   6.8
      thresh= 8.097E-08 alpha_mix =  0.300 |ddv_scf|^2 =  5.379E-15

      iter #   8 total cpu time :    45.7 secs   av.it.:   6.8
      thresh= 7.334E-09 alpha_mix =  0.300 |ddv_scf|^2 =  3.313E-16

     End of self-consistent calculation

     Convergence has been achieved 


     Representation #   5 mode #   5

     Self-consistent Calculation

      iter #   1 total cpu time :    46.0 secs   av.it.:   3.1
      thresh= 1.000E-02 alpha_mix =  0.300 |ddv_scf|^2 =  1.478E-04

      iter #   2 total cpu time :    46.2 secs   av.it.:   5.4
      thresh= 1.216E-03 alpha_mix =  0.300 |ddv_scf|^2 =  4.952E-04

      iter #   3 total cpu time :    46.4 secs   av.it.:   4.5
      thresh= 2.225E-03 alpha_mix =  0.300 |ddv_scf|^2 =  6.423E-07

      iter #   4 total cpu time :    46.6 secs   av.it.:   6.3
      thresh= 8.014E-05 alpha_mix =  0.300 |ddv_scf|^2 =  4.575E-08

      iter #   5 total cpu time :    46.9 secs   av.it.:   6.3
      thresh= 2.139E-05 alpha_mix =  0.300 |ddv_scf|^2 =  8.495E-09

      iter #   6 total cpu time :    47.1 secs   av.it.:   6.5
      thresh= 9.217E-06 alpha_mix =  0.300 |ddv_scf|^2 =  1.089E-09

      iter #   7 total cpu time :    47.3 secs   av.it.:   6.3
      thresh= 3.300E-06 alpha_mix =  0.300 |ddv_scf|^2 =  5.651E-10

      iter #   8 total cpu time :    47.5 secs   av.it.:   5.2
      thresh= 2.377E-06 alpha_mix =  0.300 |ddv_scf|^2 =  2.577E-11

      iter #   9 total cpu time :    47.8 secs   av.it.:   6.7
      thresh= 5.077E-07 alpha_mix =  0.300 |ddv_scf|^2 =  3.615E-12

      iter #  10 total cpu time :    48.0 secs   av.it.:   6.3
      thresh= 1.901E-07 alpha_mix =  0.300 |ddv_scf|^2 =  4.568E-13

      iter #  11 total cpu time :    48.2 secs   av.it.:   6.6
      thresh= 6.759E-08 alpha_mix =  0.300 |ddv_scf|^2 =  5.060E-14

      iter #  12 total cpu time :    48.5 secs   av.it.:   6.3
      thresh= 2.250E-08 alpha_mix =  0.300 |ddv_scf|^2 =  2.201E-14

      iter #  13 total cpu time :    48.7 secs   av.it.:   6.0
      thresh= 1.484E-08 alpha_mix =  0.300 |ddv_scf|^2 =  1.001E-14

      iter #  14 total cpu time :    48.9 secs   av.it.:   6.1
      thresh= 1.001E-08 alpha_mix =  0.300 |ddv_scf|^2 =  5.952E-15

      iter #  15 total cpu time :    49.1 secs   av.it.:   5.7
      thresh= 7.715E-09 alpha_mix =  0.300 |ddv_scf|^2 =  1.823E-15

      iter #  16 total cpu time :    49.4 secs   av.it.:   5.9
      thresh= 4.270E-09 alpha_mix =  0.300 |ddv_scf|^2 =  1.218E-16

     End of self-consistent calculation

     Convergence has been achieved 


     Representation #   6 mode #   6

     Self-consistent Calculation

      iter #   1 total cpu time :    49.6 secs   av.it.:   3.1
      thresh= 1.000E-02 alpha_mix =  0.300 |ddv_scf|^2 =  1.740E-04

      iter #   2 total cpu time :    49.9 secs   av.it.:   5.4
      thresh= 1.319E-03 alpha_mix =  0.300 |ddv_scf|^2 =  5.936E-04

      iter #   3 total cpu time :    50.1 secs   av.it.:   4.5
      thresh= 2.436E-03 alpha_mix =  0.300 |ddv_scf|^2 =  5.428E-07

      iter #   4 total cpu time :    50.3 secs   av.it.:   6.4
      thresh= 7.367E-05 alpha_mix =  0.300 |ddv_scf|^2 =  4.345E-08

      iter #   5 total cpu time :    50.5 secs   av.it.:   6.3
      thresh= 2.085E-05 alpha_mix =  0.300 |ddv_scf|^2 =  9.142E-09

      iter #   6 total cpu time :    50.8 secs   av.it.:   6.5
      thresh= 9.561E-06 alpha_mix =  0.300 |ddv_scf|^2 =  1.087E-09

      iter #   7 total cpu time :    51.0 secs   av.it.:   6.1
      thresh= 3.297E-06 alpha_mix =  0.300 |ddv_scf|^2 =  1.087E-09

      iter #   8 total cpu time :    51.2 secs   av.it.:   5.8
      thresh= 3.297E-06 alpha_mix =  0.300 |ddv_scf|^2 =  2.210E-11

      iter #   9 total cpu time :    51.4 secs   av.it.:   6.7
      thresh= 4.701E-07 alpha_mix =  0.300 |ddv_scf|^2 =  3.788E-12

      iter #  10 total cpu time :    51.7 secs   av.it.:   6.3
      thresh= 1.946E-07 alpha_mix =  0.300 |ddv_scf|^2 =  2.476E-12

      iter #  11 total cpu time :    51.9 secs   av.it.:   6.0
      thresh= 1.574E-07 alpha_mix =  0.300 |ddv_scf|^2 =  1.314E-13

      iter #  12 total cpu time :    52.1 secs   av.it.:   6.7
      thresh= 3.625E-08 alpha_mix =  0.300 |ddv_scf|^2 =  6.502E-14

      iter #  13 total cpu time :    52.3 secs   av.it.:   6.0
      thresh= 2.550E-08 alpha_mix =  0.300 |ddv_scf|^2 =  2.202E-14

      iter #  14 total cpu time :    52.6 secs   av.it.:   5.2
      thresh= 1.484E-08 alpha_mix =  0.300 |ddv_scf|^2 =  1.217E-15

      iter #  15 total cpu time :    52.8 secs   av.it.:   6.6
      thresh= 3.489E-09 alpha_mix =  0.300 |ddv_scf|^2 =  1.619E-16

     End of self-consistent calculation

     Convergence has been achieved 


     Representation #   7 mode #   7

     Self-consistent Calculation

      iter #   1 total cpu time :    53.1 secs   av.it.:   2.8
      thresh= 1.000E-02 alpha_mix =  0.300 |ddv_scf|^2 =  1.618E-04

      iter #   2 total cpu time :    53.3 secs   av.it.:   5.3
      thresh= 1.272E-03 alpha_mix =  0.300 |ddv_scf|^2 =  5.851E-04

      iter #   3 total cpu time :    53.5 secs   av.it.:   4.5
      thresh= 2.419E-03 alpha_mix =  0.300 |ddv_scf|^2 =  3.681E-08

      iter #   4 total cpu time :    53.7 secs   av.it.:   6.6
      thresh= 1.918E-05 alpha_mix =  0.300 |ddv_scf|^2 =  1.151E-08

      iter #   5 total cpu time :    54.0 secs   av.it.:   5.9
      thresh= 1.073E-05 alpha_mix =  0.300 |ddv_scf|^2 =  1.794E-09

      iter #   6 total cpu time :    54.2 secs   av.it.:   6.1
      thresh= 4.235E-06 alpha_mix =  0.300 |ddv_scf|^2 =  1.386E-11

      iter #   7 total cpu time :    54.4 secs   av.it.:   6.9
      thresh= 3.723E-07 alpha_mix =  0.300 |ddv_scf|^2 =  4.368E-12

      iter #   8 total cpu time :    54.6 secs   av.it.:   6.3
      thresh= 2.090E-07 alpha_mix =  0.300 |ddv_scf|^2 =  1.325E-12

      iter #   9 total cpu time :    54.9 secs   av.it.:   6.1
      thresh= 1.151E-07 alpha_mix =  0.300 |ddv_scf|^2 =  9.962E-13

      iter #  10 total cpu time :    55.1 secs   av.it.:   5.1
      thresh= 9.981E-08 alpha_mix =  0.300 |ddv_scf|^2 =  2.613E-13

      iter #  11 total cpu time :    55.3 secs   av.it.:   6.1
      thresh= 5.112E-08 alpha_mix =  0.300 |ddv_scf|^2 =  2.442E-14

      iter #  12 total cpu time :    55.6 secs   av.it.:   6.5
      thresh= 1.563E-08 alpha_mix =  0.300 |ddv_scf|^2 =  6.681E-15

      iter #  13 total cpu time :    55.8 secs   av.it.:   5.8
      thresh= 8.174E-09 alpha_mix =  0.300 |ddv_scf|^2 =  1.037E-15

      iter #  14 total cpu time :    56.0 secs   av.it.:   6.2
      thresh= 3.220E-09 alpha_mix =  0.300 |ddv_scf|^2 =  2.014E-16

     End of self-consistent calculation

     Convergence has been achieved 


     Representation #   8 mode #   8

     Self-consistent Calculation

      iter #   1 total cpu time :    56.3 secs   av.it.:   1.9
      thresh= 1.000E-02 alpha_mix =  0.300 |ddv_scf|^2 =  7.444E-08

      iter #   2 total cpu time :    56.5 secs   av.it.:   5.9
      thresh= 2.728E-05 alpha_mix =  0.300 |ddv_scf|^2 =  3.551E-08

      iter #   3 total cpu time :    56.7 secs   av.it.:   5.8
      thresh= 1.884E-05 alpha_mix =  0.300 |ddv_scf|^2 =  4.951E-10

      iter #   4 total cpu time :    57.0 secs   av.it.:   6.5
      thresh= 2.225E-06 alpha_mix =  0.300 |ddv_scf|^2 =  1.594E-11

      iter #   5 total cpu time :    57.2 secs   av.it.:   6.1
      thresh= 3.993E-07 alpha_mix =  0.300 |ddv_scf|^2 =  3.843E-12

      iter #   6 total cpu time :    57.4 secs   av.it.:   6.3
      thresh= 1.960E-07 alpha_mix =  0.300 |ddv_scf|^2 =  1.606E-14

      iter #   7 total cpu time :    57.6 secs   av.it.:   6.7
      thresh= 1.267E-08 alpha_mix =  0.300 |ddv_scf|^2 =  2.405E-15

      iter #   8 total cpu time :    57.9 secs   av.it.:   6.7
      thresh= 4.904E-09 alpha_mix =  0.300 |ddv_scf|^2 =  4.454E-17

     End of self-consistent calculation

     Convergence has been achieved 


     Representation #   9 mode #   9

     Self-consistent Calculation

      iter #   1 total cpu time :    58.2 secs   av.it.:   3.3
      thresh= 1.000E-02 alpha_mix =  0.300 |ddv_scf|^2 =  4.863E-04

      iter #   2 total cpu time :    58.4 secs   av.it.:   5.5
      thresh= 2.205E-03 alpha_mix =  0.300 |ddv_scf|^2 =  1.755E-03

      iter #   3 total cpu time :    58.6 secs   av.it.:   4.5
      thresh= 4.190E-03 alpha_mix =  0.300 |ddv_scf|^2 =  2.322E-07

      iter #   4 total cpu time :    58.8 secs   av.it.:   6.8
      thresh= 4.819E-05 alpha_mix =  0.300 |ddv_scf|^2 =  4.248E-08

      iter #   5 total cpu time :    59.1 secs   av.it.:   6.2
      thresh= 2.061E-05 alpha_mix =  0.300 |ddv_scf|^2 =  6.883E-09

      iter #   6 total cpu time :    59.4 secs   av.it.:   6.4
      thresh= 8.296E-06 alpha_mix =  0.300 |ddv_scf|^2 =  1.317E-09

      iter #   7 total cpu time :    59.6 secs   av.it.:   6.0
      thresh= 3.629E-06 alpha_mix =  0.300 |ddv_scf|^2 =  1.677E-09

      iter #   8 total cpu time :    59.9 secs   av.it.:   5.6
      thresh= 4.095E-06 alpha_mix =  0.300 |ddv_scf|^2 =  4.083E-10

      iter #   9 total cpu time :    60.2 secs   av.it.:   5.1
      thresh= 2.021E-06 alpha_mix =  0.300 |ddv_scf|^2 =  9.296E-11

      iter #  10 total cpu time :    60.5 secs   av.it.:   6.0
      thresh= 9.641E-07 alpha_mix =  0.300 |ddv_scf|^2 =  9.922E-12

      iter #  11 total cpu time :    60.8 secs   av.it.:   6.5
      thresh= 3.150E-07 alpha_mix =  0.300 |ddv_scf|^2 =  1.854E-12

      iter #  12 total cpu time :    61.0 secs   av.it.:   5.9
      thresh= 1.362E-07 alpha_mix =  0.300 |ddv_scf|^2 =  4.104E-13

      iter #  13 total cpu time :    61.2 secs   av.it.:   6.6
      thresh= 6.406E-08 alpha_mix =  0.300 |ddv_scf|^2 =  2.507E-13

      iter #  14 total cpu time :    61.4 secs   av.it.:   5.1
      thresh= 5.007E-08 alpha_mix =  0.300 |ddv_scf|^2 =  5.615E-14

      iter #  15 total cpu time :    61.6 secs   av.it.:   6.3
      thresh= 2.370E-08 alpha_mix =  0.300 |ddv_scf|^2 =  2.598E-14

      iter #  16 total cpu time :    61.9 secs   av.it.:   5.9
      thresh= 1.612E-08 alpha_mix =  0.300 |ddv_scf|^2 =  6.160E-16

     End of self-consistent calculation

     Convergence has been achieved 
 
     Number of q in the star =   12
     List of q in the star:
          1   0.000000000   0.288675135   0.145452854
          2   0.000000000  -0.288675135   0.145452854
          3   0.250000000   0.144337567   0.145452854
          4  -0.250000000   0.144337567   0.145452854
          5   0.250000000  -0.144337567   0.145452854
          6  -0.250000000  -0.144337567   0.145452854
          7   0.000000000  -0.288675135  -0.145452854
          8   0.250000000   0.144337567  -0.145452854
          9   0.000000000   0.288675135  -0.145452854
         10   0.250000000  -0.144337567  -0.145452854
         11  -0.250000000  -0.144337567  -0.145452854
         12  -0.250000000   0.144337567  -0.145452854

     Diagonalizing the dynamical matrix

     q = (    0.000000000   0.288675135   0.145452854 ) 

 **************************************************************************
     freq (    1) =       6.366754 [THz] =     212.372054 [cm-1]
     freq (    2) =       6.445089 [THz] =     214.985039 [cm-1]
     freq (    3) =       8.525519 [THz] =     284.380712 [cm-1]
     freq (    4) =      11.905051 [THz] =     397.109773 [cm-1]
     freq (    5) =      12.192760 [THz] =     406.706695 [cm-1]
     freq (    6) =      15.378456 [THz] =     512.970061 [cm-1]
     freq (    7) =      19.667267 [THz] =     656.029428 [cm-1]
     freq (    8) =      21.175198 [THz] =     706.328569 [cm-1]
     freq (    9) =      21.401219 [THz] =     713.867823 [cm-1]
 **************************************************************************

     Calculation of q =    0.0000000   0.2886751  -0.4363586
     [opt_tetra]  Optimized tetrahedron method is used.
 
     G-vector sticks info
     --------------------
     sticks:   dense  smooth     PW     G-vecs:    dense   smooth      PW
     Sum         649     313    121                15395     5449    1287
 
     Using Slab Decomposition
 

     Title: 
     Phonon                                                                     


     bravais-lattice index     =            0
     lattice parameter (alat)  =       5.8042  a.u.
[...]

     Representation     9      1 modes -  To be done



     Alpha used in Ewald sum =   2.8000
     PHONON       :   2m20.42s CPU   2m28.42s WALL



     Representation #   1 mode #   1

     Self-consistent Calculation

      iter #   1 total cpu time :   148.6 secs   av.it.:   3.0
      thresh= 1.000E-02 alpha_mix =  0.300 |ddv_scf|^2 =  6.522E-06

      iter #   2 total cpu time :   148.9 secs   av.it.:   5.6
      thresh= 2.554E-04 alpha_mix =  0.300 |ddv_scf|^2 =  5.261E-07

      iter #   3 total cpu time :   149.1 secs   av.it.:   5.5
      thresh= 7.253E-05 alpha_mix =  0.300 |ddv_scf|^2 =  1.037E-07

      iter #   4 total cpu time :   149.4 secs   av.it.:   5.7
      thresh= 3.220E-05 alpha_mix =  0.300 |ddv_scf|^2 =  1.441E-08

      iter #   5 total cpu time :   149.6 secs   av.it.:   5.8
      thresh= 1.201E-05 alpha_mix =  0.300 |ddv_scf|^2 =  2.600E-10

      iter #   6 total cpu time :   149.9 secs   av.it.:   6.0
      thresh= 1.613E-06 alpha_mix =  0.300 |ddv_scf|^2 =  4.110E-11

      iter #   7 total cpu time :   150.1 secs   av.it.:   5.9
      thresh= 6.411E-07 alpha_mix =  0.300 |ddv_scf|^2 =  2.483E-12

      iter #   8 total cpu time :   150.3 secs   av.it.:   5.2
      thresh= 1.576E-07 alpha_mix =  0.300 |ddv_scf|^2 =  9.307E-13

      iter #   9 total cpu time :   150.5 secs   av.it.:   6.0
      thresh= 9.647E-08 alpha_mix =  0.300 |ddv_scf|^2 =  5.681E-16

     End of self-consistent calculation

     Convergence has been achieved 


     Representation #   2 mode #   2

     Self-consistent Calculation

      iter #   1 total cpu time :   150.8 secs   av.it.:   2.2
      thresh= 1.000E-02 alpha_mix =  0.300 |ddv_scf|^2 =  1.210E-06

      iter #   2 total cpu time :   151.0 secs   av.it.:   5.6
      thresh= 1.100E-04 alpha_mix =  0.300 |ddv_scf|^2 =  5.077E-08

      iter #   3 total cpu time :   151.2 secs   av.it.:   5.5
      thresh= 2.253E-05 alpha_mix =  0.300 |ddv_scf|^2 =  1.765E-08

      iter #   4 total cpu time :   151.4 secs   av.it.:   5.6
      thresh= 1.329E-05 alpha_mix =  0.300 |ddv_scf|^2 =  2.913E-09

      iter #   5 total cpu time :   151.6 secs   av.it.:   5.6
      thresh= 5.398E-06 alpha_mix =  0.300 |ddv_scf|^2 =  7.707E-12

      iter #   6 total cpu time :   151.8 secs   av.it.:   6.0
      thresh= 2.776E-07 alpha_mix =  0.300 |ddv_scf|^2 =  2.526E-12

      iter #   7 total cpu time :   152.1 secs   av.it.:   5.9
      thresh= 1.589E-07 alpha_mix =  0.300 |ddv_scf|^2 =  1.604E-14

      iter #   8 total cpu time :   152.3 secs   av.it.:   5.5
      thresh= 1.266E-08 alpha_mix =  0.300 |ddv_scf|^2 =  6.698E-15

      iter #   9 total cpu time :   152.5 secs   av.it.:   6.0
      thresh= 8.184E-09 alpha_mix =  0.300 |ddv_scf|^2 =  1.049E-16

     End of self-consistent calculation

     Convergence has been achieved 


     Representation #   3 mode #   3

     Self-consistent Calculation

      iter #   1 total cpu time :   152.8 secs   av.it.:   2.7
      thresh= 1.000E-02 alpha_mix =  0.300 |ddv_scf|^2 =  9.625E-07

      iter #   2 total cpu time :   153.0 secs   av.it.:   5.5
      thresh= 9.811E-05 alpha_mix =  0.300 |ddv_scf|^2 =  1.366E-07

      iter #   3 total cpu time :   153.2 secs   av.it.:   5.1
      thresh= 3.696E-05 alpha_mix =  0.300 |ddv_scf|^2 =  4.055E-08

      iter #   4 total cpu time :   153.5 secs   av.it.:   5.6
      thresh= 2.014E-05 alpha_mix =  0.300 |ddv_scf|^2 =  8.511E-10

      iter #   5 total cpu time :   153.7 secs   av.it.:   6.1
      thresh= 2.917E-06 alpha_mix =  0.300 |ddv_scf|^2 =  4.034E-11

      iter #   6 total cpu time :   153.9 secs   av.it.:   5.7
      thresh= 6.351E-07 alpha_mix =  0.300 |ddv_scf|^2 =  1.049E-11

      iter #   7 total cpu time :   154.1 secs   av.it.:   5.6
      thresh= 3.240E-07 alpha_mix =  0.300 |ddv_scf|^2 =  7.501E-15

      iter #   8 total cpu time :   154.4 secs   av.it.:   6.3
      thresh= 8.661E-09 alpha_mix =  0.300 |ddv_scf|^2 =  3.336E-15

      iter #   9 total cpu time :   154.6 secs   av.it.:   6.0
      thresh= 5.776E-09 alpha_mix =  0.300 |ddv_scf|^2 =  1.254E-17

     End of self-consistent calculation

     Convergence has been achieved 


     Representation #   4 mode #   4

     Self-consistent Calculation

      iter #   1 total cpu time :   154.9 secs   av.it.:   2.9
      thresh= 1.000E-02 alpha_mix =  0.300 |ddv_scf|^2 =  1.061E-05

      iter #   2 total cpu time :   155.1 secs   av.it.:   5.2
      thresh= 3.258E-04 alpha_mix =  0.300 |ddv_scf|^2 =  7.991E-07

      iter #   3 total cpu time :   155.3 secs   av.it.:   5.6
      thresh= 8.939E-05 alpha_mix =  0.300 |ddv_scf|^2 =  4.368E-08

      iter #   4 total cpu time :   155.5 secs   av.it.:   5.8
      thresh= 2.090E-05 alpha_mix =  0.300 |ddv_scf|^2 =  7.675E-10

      iter #   5 total cpu time :   155.7 secs   av.it.:   6.0
      thresh= 2.770E-06 alpha_mix =  0.300 |ddv_scf|^2 =  1.387E-10

      iter #   6 total cpu time :   155.9 secs   av.it.:   5.9
      thresh= 1.178E-06 alpha_mix =  0.300 |ddv_scf|^2 =  7.115E-12

      iter #   7 total cpu time :   156.2 secs   av.it.:   5.6
      thresh= 2.667E-07 alpha_mix =  0.300 |ddv_scf|^2 =  1.056E-14

      iter #   8 total cpu time :   156.4 secs   av.it.:   6.1
      thresh= 1.028E-08 alpha_mix =  0.300 |ddv_scf|^2 =  2.450E-15

      iter #   9 total cpu time :   156.6 secs   av.it.:   6.2
      thresh= 4.949E-09 alpha_mix =  0.300 |ddv_scf|^2 =  4.562E-17

     End of self-consistent calculation

     Convergence has been achieved 


     Representation #   5 mode #   5

     Self-consistent Calculation

      iter #   1 total cpu time :   156.9 secs   av.it.:   2.7
      thresh= 1.000E-02 alpha_mix =  0.300 |ddv_scf|^2 =  1.387E-06

      iter #   2 total cpu time :   157.1 secs   av.it.:   5.5
      thresh= 1.178E-04 alpha_mix =  0.300 |ddv_scf|^2 =  3.627E-07

      iter #   3 total cpu time :   157.3 secs   av.it.:   5.6
      thresh= 6.022E-05 alpha_mix =  0.300 |ddv_scf|^2 =  2.058E-08

      iter #   4 total cpu time :   157.5 secs   av.it.:   4.9
      thresh= 1.434E-05 alpha_mix =  0.300 |ddv_scf|^2 =  3.096E-10

      iter #   5 total cpu time :   157.7 secs   av.it.:   6.0
      thresh= 1.760E-06 alpha_mix =  0.300 |ddv_scf|^2 =  3.701E-11

      iter #   6 total cpu time :   157.9 secs   av.it.:   5.6
      thresh= 6.084E-07 alpha_mix =  0.300 |ddv_scf|^2 =  1.321E-13

      iter #   7 total cpu time :   158.2 secs   av.it.:   5.8
      thresh= 3.635E-08 alpha_mix =  0.300 |ddv_scf|^2 =  3.249E-14

      iter #   8 total cpu time :   158.4 secs   av.it.:   5.9
      thresh= 1.803E-08 alpha_mix =  0.300 |ddv_scf|^2 =  7.664E-17

     End of self-consistent calculation

     Convergence has been achieved 


     Representation #   6 mode #   6

     Self-consistent Calculation

      iter #   1 total cpu time :   158.7 secs   av.it.:   2.1
      thresh= 1.000E-02 alpha_mix =  0.300 |ddv_scf|^2 =  8.138E-07

      iter #   2 total cpu time :   158.9 secs   av.it.:   5.5
      thresh= 9.021E-05 alpha_mix =  0.300 |ddv_scf|^2 =  7.231E-08

      iter #   3 total cpu time :   159.1 secs   av.it.:   5.6
      thresh= 2.689E-05 alpha_mix =  0.300 |ddv_scf|^2 =  1.166E-08

      iter #   4 total cpu time :   159.3 secs   av.it.:   5.6
      thresh= 1.080E-05 alpha_mix =  0.300 |ddv_scf|^2 =  1.244E-10

      iter #   5 total cpu time :   159.6 secs   av.it.:   6.3
      thresh= 1.115E-06 alpha_mix =  0.300 |ddv_scf|^2 =  2.881E-11

      iter #   6 total cpu time :   159.8 secs   av.it.:   5.8
      thresh= 5.368E-07 alpha_mix =  0.300 |ddv_scf|^2 =  9.089E-13

      iter #   7 total cpu time :   160.0 secs   av.it.:   6.0
      thresh= 9.533E-08 alpha_mix =  0.300 |ddv_scf|^2 =  7.182E-15

      iter #   8 total cpu time :   160.2 secs   av.it.:   5.8
      thresh= 8.474E-09 alpha_mix =  0.300 |ddv_scf|^2 =  1.878E-15

      iter #   9 total cpu time :   160.4 secs   av.it.:   6.1
      thresh= 4.333E-09 alpha_mix =  0.300 |ddv_scf|^2 =  1.035E-17

     End of self-consistent calculation

     Convergence has been achieved 


     Representation #   7 mode #   7

     Self-consistent Calculation

      iter #   1 total cpu time :   160.7 secs   av.it.:   3.0
      thresh= 1.000E-02 alpha_mix =  0.300 |ddv_scf|^2 =  5.364E-06

      iter #   2 total cpu time :   160.9 secs   av.it.:   5.5
      thresh= 2.316E-04 alpha_mix =  0.300 |ddv_scf|^2 =  2.716E-07

      iter #   3 total cpu time :   161.2 secs   av.it.:   5.5
      thresh= 5.211E-05 alpha_mix =  0.300 |ddv_scf|^2 =  5.088E-08

      iter #   4 total cpu time :   161.5 secs   av.it.:   5.8
      thresh= 2.256E-05 alpha_mix =  0.300 |ddv_scf|^2 =  1.694E-09

      iter #   5 total cpu time :   161.7 secs   av.it.:   6.0
      thresh= 4.116E-06 alpha_mix =  0.300 |ddv_scf|^2 =  5.952E-11

      iter #   6 total cpu time :   161.9 secs   av.it.:   5.6
      thresh= 7.715E-07 alpha_mix =  0.300 |ddv_scf|^2 =  1.554E-11

      iter #   7 total cpu time :   162.2 secs   av.it.:   5.3
      thresh= 3.943E-07 alpha_mix =  0.300 |ddv_scf|^2 =  6.124E-15

      iter #   8 total cpu time :   162.4 secs   av.it.:   5.9
      thresh= 7.826E-09 alpha_mix =  0.300 |ddv_scf|^2 =  2.879E-15

      iter #   9 total cpu time :   162.6 secs   av.it.:   5.6
      thresh= 5.365E-09 alpha_mix =  0.300 |ddv_scf|^2 =  5.697E-18

     End of self-consistent calculation

     Convergence has been achieved 


     Representation #   8 mode #   8

     Self-consistent Calculation

      iter #   1 total cpu time :   162.9 secs   av.it.:   3.1
      thresh= 1.000E-02 alpha_mix =  0.300 |ddv_scf|^2 =  2.200E-05

      iter #   2 total cpu time :   163.1 secs   av.it.:   5.2
      thresh= 4.691E-04 alpha_mix =  0.300 |ddv_scf|^2 =  6.407E-07

      iter #   3 total cpu time :   163.3 secs   av.it.:   5.7
      thresh= 8.004E-05 alpha_mix =  0.300 |ddv_scf|^2 =  1.294E-07

      iter #   4 total cpu time :   163.5 secs   av.it.:   5.7
      thresh= 3.597E-05 alpha_mix =  0.300 |ddv_scf|^2 =  1.375E-08

      iter #   5 total cpu time :   163.7 secs   av.it.:   5.5
      thresh= 1.173E-05 alpha_mix =  0.300 |ddv_scf|^2 =  1.572E-10

      iter #   6 total cpu time :   163.9 secs   av.it.:   5.4
      thresh= 1.254E-06 alpha_mix =  0.300 |ddv_scf|^2 =  5.118E-11

      iter #   7 total cpu time :   164.2 secs   av.it.:   5.3
      thresh= 7.154E-07 alpha_mix =  0.300 |ddv_scf|^2 =  3.848E-13

      iter #   8 total cpu time :   164.4 secs   av.it.:   6.5
      thresh= 6.203E-08 alpha_mix =  0.300 |ddv_scf|^2 =  1.151E-13

      iter #   9 total cpu time :   164.6 secs   av.it.:   6.2
      thresh= 3.393E-08 alpha_mix =  0.300 |ddv_scf|^2 =  1.117E-15

      iter #  10 total cpu time :   164.8 secs   av.it.:   6.3
      thresh= 3.342E-09 alpha_mix =  0.300 |ddv_scf|^2 =  2.829E-16

     End of self-consistent calculation

     Convergence has been achieved 


     Representation #   9 mode #   9

     Self-consistent Calculation

      iter #   1 total cpu time :   165.1 secs   av.it.:   2.0
      thresh= 1.000E-02 alpha_mix =  0.300 |ddv_scf|^2 =  9.754E-08

      iter #   2 total cpu time :   165.3 secs   av.it.:   5.7
      thresh= 3.123E-05 alpha_mix =  0.300 |ddv_scf|^2 =  3.800E-08

      iter #   3 total cpu time :   165.5 secs   av.it.:   5.7
      thresh= 1.949E-05 alpha_mix =  0.300 |ddv_scf|^2 =  4.114E-09

      iter #   4 total cpu time :   165.7 secs   av.it.:   5.3
      thresh= 6.414E-06 alpha_mix =  0.300 |ddv_scf|^2 =  3.656E-11

      iter #   5 total cpu time :   165.9 secs   av.it.:   6.1
      thresh= 6.046E-07 alpha_mix =  0.300 |ddv_scf|^2 =  5.152E-12

      iter #   6 total cpu time :   166.1 secs   av.it.:   5.9
      thresh= 2.270E-07 alpha_mix =  0.300 |ddv_scf|^2 =  2.095E-14

      iter #   7 total cpu time :   166.4 secs   av.it.:   5.7
      thresh= 1.447E-08 alpha_mix =  0.300 |ddv_scf|^2 =  7.213E-15

      iter #   8 total cpu time :   166.6 secs   av.it.:   6.0
      thresh= 8.493E-09 alpha_mix =  0.300 |ddv_scf|^2 =  2.712E-17

     End of self-consistent calculation

     Convergence has been achieved 
 
     Number of q in the star =    6
     List of q in the star:
          1   0.250000000   0.433012702  -0.436358562
          2  -0.250000000  -0.433012702  -0.436358562
          3   0.250000000  -0.433012702   0.436358562
          4  -0.250000000   0.433012702   0.436358562
          5   0.500000000   0.000000000  -0.436358562
          6  -0.500000000  -0.000000000  -0.436358562

     Diagonalizing the dynamical matrix

     q = (    0.250000000   0.433012702  -0.436358562 ) 

 **************************************************************************
     freq (    1) =       8.190985 [THz] =     273.221848 [cm-1]
     freq (    2) =       8.360844 [THz] =     278.887744 [cm-1]
     freq (    3) =       8.958723 [THz] =     298.830831 [cm-1]
     freq (    4) =      14.173237 [THz] =     472.768289 [cm-1]
     freq (    5) =      16.977458 [THz] =     566.307056 [cm-1]
     freq (    6) =      17.003287 [THz] =     567.168599 [cm-1]
     freq (    7) =      19.425063 [THz] =     647.950345 [cm-1]
     freq (    8) =      21.976546 [THz] =     733.058681 [cm-1]
     freq (    9) =      23.795585 [THz] =     793.735272 [cm-1]
 **************************************************************************
 
     init_run     :      0.75s CPU      1.29s WALL (       8 calls)
     electrons    :      1.38s CPU      1.42s WALL (       8 calls)

     Called by init_run:
     wfcinit      :      0.00s CPU      0.02s WALL (       8 calls)
     potinit      :      0.31s CPU      0.82s WALL (       8 calls)
     hinit0       :      0.32s CPU      0.32s WALL (       8 calls)

     Called by electrons:
     c_bands      :      1.32s CPU      1.36s WALL (       8 calls)
     v_of_rho     :      0.13s CPU      0.14s WALL (       9 calls)
     newd         :      0.01s CPU      0.01s WALL (       9 calls)
     PAW_pot      :      0.11s CPU      0.11s WALL (       9 calls)

     Called by c_bands:
     init_us_2    :      0.48s CPU      0.52s WALL (    2217 calls)
     cegterg      :      0.76s CPU      0.78s WALL (      45 calls)

     Called by *egterg:
     cdiaghg      :      0.10s CPU      0.10s WALL (     700 calls)
     h_psi        :      8.40s CPU      8.71s WALL (   17607 calls)
     s_psi        :      0.81s CPU      0.84s WALL (   36259 calls)
     g_psi        :      0.01s CPU      0.01s WALL (     660 calls)

     Called by h_psi:
     h_psi:calbec :      0.49s CPU      0.51s WALL (   17607 calls)
     vloc_psi     :      7.33s CPU      7.60s WALL (   17607 calls)
     add_vuspsi   :      0.40s CPU      0.41s WALL (   17607 calls)

     General routines
     calbec       :      0.96s CPU      1.00s WALL (   39229 calls)
     fft          :      2.74s CPU      2.77s WALL (   12484 calls)
     ffts         :      0.14s CPU      0.15s WALL (    2286 calls)
     fftw         :      7.11s CPU      7.41s WALL (  193174 calls)
     interpolate  :      0.75s CPU      0.76s WALL (    1440 calls)
     davcio       :      0.05s CPU      0.82s WALL (     144 calls)
 
     Parallel routines
 
     PHONON       :   2m37.71s CPU   2m46.75s WALL

     INITIALIZATION: 
     phq_setup    :      0.39s CPU      0.48s WALL (       8 calls)
     phq_init     :     10.61s CPU     10.93s WALL (       8 calls)
 
     phq_init     :     10.61s CPU     10.93s WALL (       8 calls)
     set_drhoc    :      0.06s CPU      0.06s WALL (      24 calls)
     init_vloc    :      0.04s CPU      0.04s WALL (       9 calls)
     init_us_1    :      0.19s CPU      0.20s WALL (       9 calls)
     init_us_2    :      0.48s CPU      0.52s WALL (    2217 calls)
     newd         :      0.01s CPU      0.01s WALL (       9 calls)
     dvanqq       :      4.29s CPU      4.31s WALL (       8 calls)
     drho         :      5.95s CPU      6.00s WALL (       8 calls)
     drhous       :      0.14s CPU      0.17s WALL (       8 calls)
     nldyntot     :      0.01s CPU      0.01s WALL (       8 calls)
 
     DYNAMICAL MATRIX:
     dynmat0      :      0.25s CPU      0.50s WALL (       8 calls)
     dynmat_us    :      0.09s CPU      0.10s WALL (       8 calls)
     addusdynmat  :      0.00s CPU      0.00s WALL (       8 calls)
     d2ionq       :      0.01s CPU      0.01s WALL (       8 calls)
     dynmatcc     :      0.13s CPU      0.14s WALL (       8 calls)
     phqscf       :    143.91s CPU    150.53s WALL (       8 calls)
     dynmatrix    :      0.02s CPU      0.20s WALL (       8 calls)
 
     phqscf       :    143.91s CPU    150.53s WALL (       8 calls)
     solve_linter :    143.60s CPU    148.38s WALL (      66 calls)
     sth_kernel   :     19.36s CPU     20.06s WALL (     635 calls)
     h_prec       :      0.04s CPU      0.04s WALL (    1749 calls)
     apply_dpot_b :      1.36s CPU      1.48s WALL (    1610 calls)
     ortho        :      0.24s CPU      0.26s WALL (    1790 calls)
     cgsolve      :     10.49s CPU     10.89s WALL (    1790 calls)
     incdrhoscf   :      1.73s CPU      1.78s WALL (    1790 calls)
                                        0.00s GPU  (    1790 calls)
     addusddens   :     44.32s CPU     44.33s WALL (     701 calls)
     dv_of_drho   :      8.36s CPU      8.40s WALL (     676 calls)
     mix_pot      :      1.81s CPU      1.83s WALL (     635 calls)
     drhodv       :      0.21s CPU      0.21s WALL (      66 calls)
     psymdvscf    :      4.61s CPU      4.63s WALL (     635 calls)
     newdq        :     43.16s CPU     43.17s WALL (     635 calls)
     adddvscf     :      0.13s CPU      0.14s WALL (    1610 calls)
     com_dvloc    :      0.11s CPU      0.11s WALL (     846 calls)
                                        0.00s GPU  (     846 calls)
     addcore      :      0.83s CPU      0.84s WALL (    1396 calls)
                                        0.00s GPU  (    1396 calls)
     drhodvus     :      0.15s CPU      0.19s WALL (      66 calls)
 
     dvqpsi_us    :      0.35s CPU      0.38s WALL (     180 calls)
                                        0.00s GPU  (     180 calls)
     dvqpsi_us_on :      0.07s CPU      0.08s WALL (     180 calls)
 
     add_vuspsi   :      0.40s CPU      0.41s WALL (   17607 calls)
     addusdbec    :      0.12s CPU      0.12s WALL (    1970 calls)
 
     drhodvus     :      0.15s CPU      0.19s WALL (      66 calls)
 
      General routines
     calbec       :      0.96s CPU      1.00s WALL (   39229 calls)
     fft          :      2.74s CPU      2.77s WALL (   12484 calls)
     ffts         :      0.14s CPU      0.15s WALL (    2286 calls)
     fftw         :      7.11s CPU      7.41s WALL (  193174 calls)
     davcio       :      0.05s CPU      0.82s WALL (     144 calls)
     write_rec    :      2.65s CPU      7.20s WALL (     701 calls)
 
      Additional routines
     ch_psi       :     10.05s CPU     10.43s WALL (   16862 calls)
     last         :      1.49s CPU      1.54s WALL (   16862 calls)
     Hesh         :      0.09s CPU      0.10s WALL (   16862 calls)
     ch_psi_all_k :      1.30s CPU      1.35s WALL (   16862 calls)
                                        0.00s GPU  (   16862 calls)
     ch_psi_calbe :      0.35s CPU      0.36s WALL (   16862 calls)
                                        0.00s GPU  (   16862 calls)
     h_psi_bgrp   :      8.43s CPU      8.74s WALL (   17607 calls)
     h_psi        :      8.40s CPU      8.71s WALL (   17607 calls)
     h_psi:pot    :      8.29s CPU      8.60s WALL (   17607 calls)
     h_psi:calbec :      0.49s CPU      0.51s WALL (   17607 calls)
     s_psi_bgrp   :      0.98s CPU      1.01s WALL (   36259 calls)
     s_psi        :      0.81s CPU      0.84s WALL (   36259 calls)
 
 
     PHONON       :   2m37.71s CPU   2m46.75s WALL

 
   This run was terminated on:  22:49:59  17Mar2026            

=------------------------------------------------------------------------------=
   JOB DONE.
=------------------------------------------------------------------------------=
