
     Program PHONON v.7.4.1 starts on 13Mar2026 at  3: 0:43 

     This program is part of the open-source Quantum ESPRESSO suite
     for quantum simulation of materials; please cite
         "P. Giannozzi et al., J. Phys.:Condens. Matter 21 395502 (2009);
         "P. Giannozzi et al., J. Phys.:Condens. Matter 29 465901 (2017);
         "P. Giannozzi et al., J. Chem. Phys. 152 154105 (2020);
          URL http://www.quantum-espresso.org", 
     in publications or presentations arising from this work. More details at
     http://www.quantum-espresso.org/quote

     Parallel version (MPI & OpenMP), running on      64 processor cores
     Number of MPI processes:                64
     Threads/MPI process:                     1

     MPI processes distributed on     1 nodes
     225555 MiB available memory on the printing compute node when the environment starts
 
     Reading input from ph.in

     Reading xml data from directory:

     ./pwscf.save/
 
     K-points division:     npool     =      64
     Subspace diagonalization in iterative solution of the eigenvalue problem:
     a serial algorithm will be used

     file B.pbe-n-kjpaw_psl.0.1.upf: wavefunction(s)  2P renormalized
     file Mg.pbe-n-kjpaw_psl.0.3.0.upf: wavefunction(s)  3S renormalized

     IMPORTANT: XC functional enforced from input :
     Exchange-correlation= PBE
                           (   1   4   3   4   0   0   0)
     Any further DFT definition will be discarded
     Please, verify this is what you really want

 
     G-vector sticks info
     --------------------
     sticks:   dense  smooth     PW     G-vecs:    dense   smooth      PW
     Sum         649     313    109                15395     5449    1011
 
     Using Slab Decomposition
 

     Check: negative core charge=   -0.000006
     Message from routine divide_et_impera:
     suboptimal parallelization: some nodes have no k-points
     Reading collected, re-writing distributed wavefunctions in ./


     Dynamical matrices for ( 4, 4, 3)  uniform grid of q-points
     With a half shift
     (  12 q-points):
       N         xq(1)         xq(2)         xq(3) 
       1   0.125000000   0.216506351   0.145452854
       2   0.125000000   0.216506351  -0.436358562
       3   0.125000000   0.505181486   0.145452854
       4   0.125000000   0.505181486  -0.436358562
       5   0.125000000  -0.360843918   0.145452854
       6   0.125000000  -0.360843918  -0.436358562
       7   0.125000000  -0.072168784   0.145452854
       8   0.125000000  -0.072168784  -0.436358562
       9   0.375000000   0.649519053   0.145452854
      10   0.375000000   0.649519053  -0.436358562
      11   0.375000000  -0.216506351   0.145452854
      12   0.375000000  -0.216506351  -0.436358562
     Because shifted q grid is used, q2r will not work !

     Number and degeneracy of irreps per q-point
       N         xq(1)         xq(2)         xq(3)   N irreps
       1   0.125000000   0.216506351   0.145452854       9
     No degeneracy
       2   0.125000000   0.216506351  -0.436358562       9
     No degeneracy
       3   0.125000000   0.505181486   0.145452854       9
     No degeneracy
       4   0.125000000   0.505181486  -0.436358562       9
     No degeneracy
       5   0.125000000  -0.360843918   0.145452854       9
     No degeneracy
       6   0.125000000  -0.360843918  -0.436358562       9
     No degeneracy
       7   0.125000000  -0.072168784   0.145452854       9
     No degeneracy
       8   0.125000000  -0.072168784  -0.436358562       9
     No degeneracy
       9   0.375000000   0.649519053   0.145452854       9
     No degeneracy
      10   0.375000000   0.649519053  -0.436358562       9
     No degeneracy
      11   0.375000000  -0.216506351   0.145452854       9
     No degeneracy
      12   0.375000000  -0.216506351  -0.436358562       9
     No degeneracy

     Saving dvscf to file. Distribute only q points, not irreducible representations.

     Calculation of q =    0.1250000   0.2165064   0.1454529
     [opt_tetra]  Optimized tetrahedron method is used.
 
     G-vector sticks info
     --------------------
     sticks:   dense  smooth     PW     G-vecs:    dense   smooth      PW
     Sum         649     313    121                15395     5449    1131
 
     Using Slab Decomposition
 

     Title: 
     Phonon                                                                     


     bravais-lattice index     =            0
     lattice parameter (alat)  =       5.8042  a.u.
     unit-cell volume          =     194.0373 (a.u.)^3
     number of atoms/cell      =            3
     number of atomic types    =            2
     number of electrons       =         8.00
     number of Kohn-Sham states=            8
     kinetic-energy cutoff     =      35.0000  Ry
     charge density cutoff     =     280.0000  Ry
     Exchange-correlation= PBE
                           (   1   4   3   4   0   0   0)

     celldm(1)=   5.804205  celldm(2)=   0.000000  celldm(3)=   0.000000
     celldm(4)=   0.000000  celldm(5)=   0.000000  celldm(6)=   0.000000

     crystal axes: (cart. coord. in units of alat)
               a(1) = (   1.000000   0.000000   0.000000 )  
               a(2) = (  -0.500000   0.866025   0.000000 )  
               a(3) = (   0.000000   0.000000   1.145847 )  

     reciprocal axes: (cart. coord. in units 2 pi/alat)
               b(1) = (  1.000000  0.577350  0.000000 )  
               b(2) = (  0.000000  1.154701  0.000000 )  
               b(3) = (  0.000000  0.000000  0.872717 )  


     PseudoPot. # 1 for B  read from file:
     ./B.pbe-n-kjpaw_psl.0.1.upf
     MD5 check sum: b4345a612e0782cca08559f453f3313f
     Pseudo is Projector augmented-wave + core cor, Zval =  3.0
     Generated using "atomic" code by A. Dal Corso  v.5.0.99 svn rev. 10869
     Shape of augmentation charge: BESSEL
     Using radial grid of 1059 points,  4 beta functions with: 
                l(1) =   0
                l(2) =   0
                l(3) =   1
                l(4) =   1
     Q(r) pseudized with 0 coefficients 


     PseudoPot. # 2 for Mg read from file:
     ./Mg.pbe-n-kjpaw_psl.0.3.0.upf
     MD5 check sum: 9eaefceb6cf3903db1b93e4e5c6adf9a
     Pseudo is Projector augmented-wave + core cor, Zval =  2.0
     Generated using "atomic" code by A. Dal Corso  v.5.0.99 svn rev. 10869
     Shape of augmentation charge: PSQ
     Using radial grid of 1129 points,  4 beta functions with: 
                l(1) =   0
                l(2) =   0
                l(3) =   1
                l(4) =   1
     Q(r) pseudized with 0 coefficients 


     atomic species   valence    mass     pseudopotential
     B                 3.00    10.81100     B ( 1.00)
     Mg                2.00    24.30500     Mg( 1.00)

     24 Sym. Ops., with inversion, found



   Cartesian axes

     site n.     atom                  positions (alat units)
         1        Mg     tau(   1) = (   0.0000000   0.0000000   0.0000000  )
         2        B      tau(   2) = (  -0.0000000   0.5773503   0.5729233  )
         3        B      tau(   3) = (   0.5000000   0.2886751   0.5729233  )

     number of k points=   432 (tetrahedron method)

     Number of k-points >= 100: set verbosity='high' to print them.

     Dense  grid:    15395 G-vectors     FFT dimensions: (  32,  32,  36)

     Smooth grid:     5449 G-vectors     FFT dimensions: (  24,  24,  25)

     Estimated max dynamical RAM per process >       7.88 MB

     Estimated total dynamical RAM >     504.42 MB

     Check: negative core charge=   -0.000006

     The potential is recalculated from file :
     ./_ph0/pwscf.q_1/pwscf.save/charge-density

     Starting wfcs are   12 atomic wfcs
     Checking if some PAW data can be deallocated... 

     Band Structure Calculation
     Davidson diagonalization with overlap

     ethr =  1.25E-10,  avg # of iterations = 20.1

     total cpu time spent up to now is        0.7 secs

     End of band structure calculation

     Number of k-points >= 100: set verbosity='high' to print the bands.

     the Fermi energy is     7.6604 ev
 
     [dfpt_tetra]  Dos(E_F)[/Ry] :   0.8845642E+01

     Phonon                                                                     

     bravais-lattice index     =            0
     lattice parameter (alat)  =       5.8042  a.u.
     unit-cell volume          =     194.0373 (a.u.)^3
     number of atoms/cell      =            3
     number of atomic types    =            2
     kinetic-energy cut-off    =      35.0000  Ry
     charge density cut-off    =     280.0000  Ry
     convergence threshold     =      1.0E-15
     beta                      =       0.3000
     number of iterations used =            4
     Exchange-correlation= PBE
                           (   1   4   3   4   0   0   0)


     celldm(1)=    5.80420  celldm(2)=    0.00000  celldm(3)=    0.00000
     celldm(4)=    0.00000  celldm(5)=    0.00000  celldm(6)=    0.00000

     crystal axes: (cart. coord. in units of alat)
               a(1) = (  1.0000  0.0000  0.0000 )  
               a(2) = ( -0.5000  0.8660  0.0000 )  
               a(3) = (  0.0000  0.0000  1.1458 )  

     reciprocal axes: (cart. coord. in units 2 pi/alat)
               b(1) = (  1.0000  0.5774  0.0000 )  
               b(2) = (  0.0000  1.1547  0.0000 )  
               b(3) = (  0.0000  0.0000  0.8727 )  


     Atoms inside the unit cell: 

     Cartesian axes

     site n.  atom      mass           positions (alat units)
        1  Mg     24.3050   tau(    1) = (    0.00000    0.00000    0.00000  )
        2  B      10.8110   tau(    2) = (   -0.00000    0.57735    0.57292  )
        3  B      10.8110   tau(    3) = (    0.50000    0.28868    0.57292  )

     Computing dynamical matrix for 
                    q = (   0.1250000   0.2165064   0.1454529 )
 
      2 Sym.Ops. (no q -> -q+G )


     G cutoff =  238.9372  (  15395 G-vectors)     FFT grid: ( 32, 32, 36)
     G cutoff =  119.4686  (   5449 G-vectors)  smooth grid: ( 24, 24, 25)
     number of k points=   432

     PseudoPot. # 1 for B  read from file:
     ./B.pbe-n-kjpaw_psl.0.1.upf
     MD5 check sum: b4345a612e0782cca08559f453f3313f
     Pseudo is Projector augmented-wave + core cor, Zval =  3.0
     Generated using "atomic" code by A. Dal Corso  v.5.0.99 svn rev. 10869
     Shape of augmentation charge: BESSEL
     Using radial grid of 1059 points,  4 beta functions with: 
                l(1) =   0
                l(2) =   0
                l(3) =   1
                l(4) =   1
     Q(r) pseudized with 0 coefficients 


     PseudoPot. # 2 for Mg read from file:
     ./Mg.pbe-n-kjpaw_psl.0.3.0.upf
     MD5 check sum: 9eaefceb6cf3903db1b93e4e5c6adf9a
     Pseudo is Projector augmented-wave + core cor, Zval =  2.0
     Generated using "atomic" code by A. Dal Corso  v.5.0.99 svn rev. 10869
     Shape of augmentation charge: PSQ
     Using radial grid of 1129 points,  4 beta functions with: 
                l(1) =   0
                l(2) =   0
                l(3) =   1
                l(4) =   1
     Q(r) pseudized with 0 coefficients 



     Atomic displacements:
     There are    9 irreducible representations

     Representation     1      1 modes -  To be done

     Representation     2      1 modes -  To be done

     Representation     3      1 modes -  To be done

     Representation     4      1 modes -  To be done

     Representation     5      1 modes -  To be done

     Representation     6      1 modes -  To be done

     Representation     7      1 modes -  To be done

     Representation     8      1 modes -  To be done

     Representation     9      1 modes -  To be done


     Message from routine init_vloc:
     Interpolation table for Vloc re-allocated

     Alpha used in Ewald sum =   2.8000
     PHONON       :      2.96s CPU      3.40s WALL



     Representation #   1 mode #   1

     Self-consistent Calculation

      iter #   1 total cpu time :     3.6 secs   av.it.:   3.5
      thresh= 1.000E-02 alpha_mix =  0.300 |ddv_scf|^2 =  1.025E-03

      iter #   2 total cpu time :     3.9 secs   av.it.:   5.4
      thresh= 3.202E-03 alpha_mix =  0.300 |ddv_scf|^2 =  7.323E-03

      iter #   3 total cpu time :     4.1 secs   av.it.:   4.2
      thresh= 8.558E-03 alpha_mix =  0.300 |ddv_scf|^2 =  7.172E-07

      iter #   4 total cpu time :     4.4 secs   av.it.:   6.6
      thresh= 8.469E-05 alpha_mix =  0.300 |ddv_scf|^2 =  6.007E-08

      iter #   5 total cpu time :     4.7 secs   av.it.:   6.4
      thresh= 2.451E-05 alpha_mix =  0.300 |ddv_scf|^2 =  1.783E-08

      iter #   6 total cpu time :     4.9 secs   av.it.:   6.2
      thresh= 1.335E-05 alpha_mix =  0.300 |ddv_scf|^2 =  5.811E-09

      iter #   7 total cpu time :     5.2 secs   av.it.:   4.7
      thresh= 7.623E-06 alpha_mix =  0.300 |ddv_scf|^2 =  2.337E-09

      iter #   8 total cpu time :     5.4 secs   av.it.:   5.7
      thresh= 4.834E-06 alpha_mix =  0.300 |ddv_scf|^2 =  1.220E-10

      iter #   9 total cpu time :     5.7 secs   av.it.:   6.4
      thresh= 1.105E-06 alpha_mix =  0.300 |ddv_scf|^2 =  2.084E-11

      iter #  10 total cpu time :     5.9 secs   av.it.:   5.9
      thresh= 4.565E-07 alpha_mix =  0.300 |ddv_scf|^2 =  1.330E-11

      iter #  11 total cpu time :     6.2 secs   av.it.:   5.8
      thresh= 3.647E-07 alpha_mix =  0.300 |ddv_scf|^2 =  5.629E-13

      iter #  12 total cpu time :     6.4 secs   av.it.:   6.2
      thresh= 7.503E-08 alpha_mix =  0.300 |ddv_scf|^2 =  1.306E-13

      iter #  13 total cpu time :     6.7 secs   av.it.:   6.3
      thresh= 3.614E-08 alpha_mix =  0.300 |ddv_scf|^2 =  1.366E-13

      iter #  14 total cpu time :     6.9 secs   av.it.:   5.2
      thresh= 3.695E-08 alpha_mix =  0.300 |ddv_scf|^2 =  9.872E-15

      iter #  15 total cpu time :     7.1 secs   av.it.:   6.4
      thresh= 9.936E-09 alpha_mix =  0.300 |ddv_scf|^2 =  1.636E-15

      iter #  16 total cpu time :     7.3 secs   av.it.:   4.6
      thresh= 4.045E-09 alpha_mix =  0.300 |ddv_scf|^2 =  2.419E-16

     End of self-consistent calculation

     Convergence has been achieved 


     Representation #   2 mode #   2

     Self-consistent Calculation

      iter #   1 total cpu time :     7.6 secs   av.it.:   2.8
      thresh= 1.000E-02 alpha_mix =  0.300 |ddv_scf|^2 =  3.720E-07

      iter #   2 total cpu time :     7.8 secs   av.it.:   6.4
      thresh= 6.099E-05 alpha_mix =  0.300 |ddv_scf|^2 =  1.322E-07

      iter #   3 total cpu time :     8.0 secs   av.it.:   6.0
      thresh= 3.636E-05 alpha_mix =  0.300 |ddv_scf|^2 =  2.086E-08

      iter #   4 total cpu time :     8.2 secs   av.it.:   6.5
      thresh= 1.444E-05 alpha_mix =  0.300 |ddv_scf|^2 =  8.909E-10

      iter #   5 total cpu time :     8.5 secs   av.it.:   6.9
      thresh= 2.985E-06 alpha_mix =  0.300 |ddv_scf|^2 =  3.120E-11

      iter #   6 total cpu time :     8.7 secs   av.it.:   5.6
      thresh= 5.586E-07 alpha_mix =  0.300 |ddv_scf|^2 =  1.009E-11

      iter #   7 total cpu time :     8.9 secs   av.it.:   6.1
      thresh= 3.176E-07 alpha_mix =  0.300 |ddv_scf|^2 =  1.482E-13

      iter #   8 total cpu time :     9.2 secs   av.it.:   7.1
      thresh= 3.850E-08 alpha_mix =  0.300 |ddv_scf|^2 =  5.673E-15

      iter #   9 total cpu time :     9.4 secs   av.it.:   6.9
      thresh= 7.532E-09 alpha_mix =  0.300 |ddv_scf|^2 =  2.744E-16

     End of self-consistent calculation

     Convergence has been achieved 


     Representation #   3 mode #   3

     Self-consistent Calculation

      iter #   1 total cpu time :     9.6 secs   av.it.:   2.4
      thresh= 1.000E-02 alpha_mix =  0.300 |ddv_scf|^2 =  8.182E-05

      iter #   2 total cpu time :     9.9 secs   av.it.:   5.6
      thresh= 9.045E-04 alpha_mix =  0.300 |ddv_scf|^2 =  6.082E-04

      iter #   3 total cpu time :    10.1 secs   av.it.:   4.2
      thresh= 2.466E-03 alpha_mix =  0.300 |ddv_scf|^2 =  7.421E-08

      iter #   4 total cpu time :    10.3 secs   av.it.:   6.5
      thresh= 2.724E-05 alpha_mix =  0.300 |ddv_scf|^2 =  1.125E-08

      iter #   5 total cpu time :    10.5 secs   av.it.:   5.9
      thresh= 1.061E-05 alpha_mix =  0.300 |ddv_scf|^2 =  3.177E-09

      iter #   6 total cpu time :    10.8 secs   av.it.:   5.8
      thresh= 5.637E-06 alpha_mix =  0.300 |ddv_scf|^2 =  2.459E-10

      iter #   7 total cpu time :    11.0 secs   av.it.:   6.1
      thresh= 1.568E-06 alpha_mix =  0.300 |ddv_scf|^2 =  5.352E-12

      iter #   8 total cpu time :    11.2 secs   av.it.:   6.4
      thresh= 2.313E-07 alpha_mix =  0.300 |ddv_scf|^2 =  1.824E-11

      iter #   9 total cpu time :    11.4 secs   av.it.:   4.4
      thresh= 4.271E-07 alpha_mix =  0.300 |ddv_scf|^2 =  7.002E-13

      iter #  10 total cpu time :    11.7 secs   av.it.:   6.4
      thresh= 8.368E-08 alpha_mix =  0.300 |ddv_scf|^2 =  3.252E-13

      iter #  11 total cpu time :    11.9 secs   av.it.:   5.4
      thresh= 5.702E-08 alpha_mix =  0.300 |ddv_scf|^2 =  9.554E-15

      iter #  12 total cpu time :    12.1 secs   av.it.:   6.5
      thresh= 9.774E-09 alpha_mix =  0.300 |ddv_scf|^2 =  3.678E-15

      iter #  13 total cpu time :    12.4 secs   av.it.:   5.8
      thresh= 6.065E-09 alpha_mix =  0.300 |ddv_scf|^2 =  3.651E-16

     End of self-consistent calculation

     Convergence has been achieved 


     Representation #   4 mode #   4

     Self-consistent Calculation

      iter #   1 total cpu time :    12.6 secs   av.it.:   3.2
      thresh= 1.000E-02 alpha_mix =  0.300 |ddv_scf|^2 =  4.697E-04

      iter #   2 total cpu time :    12.8 secs   av.it.:   5.5
      thresh= 2.167E-03 alpha_mix =  0.300 |ddv_scf|^2 =  3.220E-03

      iter #   3 total cpu time :    13.1 secs   av.it.:   4.2
      thresh= 5.675E-03 alpha_mix =  0.300 |ddv_scf|^2 =  1.990E-06

      iter #   4 total cpu time :    13.3 secs   av.it.:   6.2
      thresh= 1.411E-04 alpha_mix =  0.300 |ddv_scf|^2 =  5.441E-08

      iter #   5 total cpu time :    13.5 secs   av.it.:   6.4
      thresh= 2.333E-05 alpha_mix =  0.300 |ddv_scf|^2 =  2.529E-08

      iter #   6 total cpu time :    13.7 secs   av.it.:   6.1
      thresh= 1.590E-05 alpha_mix =  0.300 |ddv_scf|^2 =  6.568E-09

      iter #   7 total cpu time :    13.9 secs   av.it.:   4.9
      thresh= 8.104E-06 alpha_mix =  0.300 |ddv_scf|^2 =  2.251E-09

      iter #   8 total cpu time :    14.2 secs   av.it.:   6.1
      thresh= 4.744E-06 alpha_mix =  0.300 |ddv_scf|^2 =  4.291E-11

      iter #   9 total cpu time :    14.4 secs   av.it.:   6.1
      thresh= 6.551E-07 alpha_mix =  0.300 |ddv_scf|^2 =  1.124E-11

      iter #  10 total cpu time :    14.6 secs   av.it.:   6.2
      thresh= 3.353E-07 alpha_mix =  0.300 |ddv_scf|^2 =  5.094E-12

      iter #  11 total cpu time :    14.8 secs   av.it.:   5.6
      thresh= 2.257E-07 alpha_mix =  0.300 |ddv_scf|^2 =  5.173E-13

      iter #  12 total cpu time :    15.0 secs   av.it.:   6.3
      thresh= 7.192E-08 alpha_mix =  0.300 |ddv_scf|^2 =  3.833E-14

      iter #  13 total cpu time :    15.3 secs   av.it.:   6.2
      thresh= 1.958E-08 alpha_mix =  0.300 |ddv_scf|^2 =  1.643E-14

      iter #  14 total cpu time :    15.5 secs   av.it.:   5.2
      thresh= 1.282E-08 alpha_mix =  0.300 |ddv_scf|^2 =  5.035E-16

     End of self-consistent calculation

     Convergence has been achieved 


     Representation #   5 mode #   5

     Self-consistent Calculation

      iter #   1 total cpu time :    15.7 secs   av.it.:   2.9
      thresh= 1.000E-02 alpha_mix =  0.300 |ddv_scf|^2 =  9.536E-07

      iter #   2 total cpu time :    16.0 secs   av.it.:   6.3
      thresh= 9.765E-05 alpha_mix =  0.300 |ddv_scf|^2 =  2.011E-07

      iter #   3 total cpu time :    16.2 secs   av.it.:   6.0
      thresh= 4.485E-05 alpha_mix =  0.300 |ddv_scf|^2 =  3.743E-08

      iter #   4 total cpu time :    16.4 secs   av.it.:   6.5
      thresh= 1.935E-05 alpha_mix =  0.300 |ddv_scf|^2 =  2.067E-09

      iter #   5 total cpu time :    16.6 secs   av.it.:   6.7
      thresh= 4.547E-06 alpha_mix =  0.300 |ddv_scf|^2 =  3.897E-11

      iter #   6 total cpu time :    16.8 secs   av.it.:   6.0
      thresh= 6.242E-07 alpha_mix =  0.300 |ddv_scf|^2 =  1.429E-11

      iter #   7 total cpu time :    17.1 secs   av.it.:   6.0
      thresh= 3.780E-07 alpha_mix =  0.300 |ddv_scf|^2 =  2.268E-13

      iter #   8 total cpu time :    17.3 secs   av.it.:   6.2
      thresh= 4.763E-08 alpha_mix =  0.300 |ddv_scf|^2 =  7.801E-14

      iter #   9 total cpu time :    17.5 secs   av.it.:   6.6
      thresh= 2.793E-08 alpha_mix =  0.300 |ddv_scf|^2 =  4.958E-16

     End of self-consistent calculation

     Convergence has been achieved 


     Representation #   6 mode #   6

     Self-consistent Calculation

      iter #   1 total cpu time :    17.8 secs   av.it.:   2.9
      thresh= 1.000E-02 alpha_mix =  0.300 |ddv_scf|^2 =  4.007E-04

      iter #   2 total cpu time :    18.1 secs   av.it.:   5.3
      thresh= 2.002E-03 alpha_mix =  0.300 |ddv_scf|^2 =  2.906E-03

      iter #   3 total cpu time :    18.3 secs   av.it.:   4.2
      thresh= 5.390E-03 alpha_mix =  0.300 |ddv_scf|^2 =  4.366E-08

      iter #   4 total cpu time :    18.5 secs   av.it.:   6.8
      thresh= 2.090E-05 alpha_mix =  0.300 |ddv_scf|^2 =  1.375E-08

      iter #   5 total cpu time :    18.7 secs   av.it.:   5.9
      thresh= 1.172E-05 alpha_mix =  0.300 |ddv_scf|^2 =  2.387E-09

      iter #   6 total cpu time :    18.9 secs   av.it.:   5.8
      thresh= 4.886E-06 alpha_mix =  0.300 |ddv_scf|^2 =  7.556E-11

      iter #   7 total cpu time :    19.2 secs   av.it.:   6.2
      thresh= 8.692E-07 alpha_mix =  0.300 |ddv_scf|^2 =  8.303E-12

      iter #   8 total cpu time :    19.4 secs   av.it.:   6.4
      thresh= 2.882E-07 alpha_mix =  0.300 |ddv_scf|^2 =  1.084E-11

      iter #   9 total cpu time :    19.7 secs   av.it.:   4.9
      thresh= 3.293E-07 alpha_mix =  0.300 |ddv_scf|^2 =  1.893E-12

      iter #  10 total cpu time :    19.9 secs   av.it.:   5.6
      thresh= 1.376E-07 alpha_mix =  0.300 |ddv_scf|^2 =  5.366E-13

      iter #  11 total cpu time :    20.2 secs   av.it.:   5.7
      thresh= 7.325E-08 alpha_mix =  0.300 |ddv_scf|^2 =  1.141E-13

      iter #  12 total cpu time :    20.4 secs   av.it.:   6.0
      thresh= 3.377E-08 alpha_mix =  0.300 |ddv_scf|^2 =  7.106E-15

      iter #  13 total cpu time :    20.6 secs   av.it.:   6.3
      thresh= 8.430E-09 alpha_mix =  0.300 |ddv_scf|^2 =  2.397E-15

      iter #  14 total cpu time :    20.8 secs   av.it.:   6.0
      thresh= 4.896E-09 alpha_mix =  0.300 |ddv_scf|^2 =  1.071E-15

      iter #  15 total cpu time :    21.1 secs   av.it.:   5.5
      thresh= 3.272E-09 alpha_mix =  0.300 |ddv_scf|^2 =  9.686E-16

     End of self-consistent calculation

     Convergence has been achieved 


     Representation #   7 mode #   7

     Self-consistent Calculation

      iter #   1 total cpu time :    21.3 secs   av.it.:   2.9
      thresh= 1.000E-02 alpha_mix =  0.300 |ddv_scf|^2 =  2.250E-06

      iter #   2 total cpu time :    21.5 secs   av.it.:   6.1
      thresh= 1.500E-04 alpha_mix =  0.300 |ddv_scf|^2 =  2.957E-07

      iter #   3 total cpu time :    21.7 secs   av.it.:   5.9
      thresh= 5.438E-05 alpha_mix =  0.300 |ddv_scf|^2 =  4.546E-08

      iter #   4 total cpu time :    22.0 secs   av.it.:   6.5
      thresh= 2.132E-05 alpha_mix =  0.300 |ddv_scf|^2 =  2.867E-09

      iter #   5 total cpu time :    22.2 secs   av.it.:   6.5
      thresh= 5.354E-06 alpha_mix =  0.300 |ddv_scf|^2 =  5.277E-11

      iter #   6 total cpu time :    22.4 secs   av.it.:   5.7
      thresh= 7.264E-07 alpha_mix =  0.300 |ddv_scf|^2 =  2.072E-11

      iter #   7 total cpu time :    22.6 secs   av.it.:   5.8
      thresh= 4.552E-07 alpha_mix =  0.300 |ddv_scf|^2 =  1.880E-13

      iter #   8 total cpu time :    22.9 secs   av.it.:   6.5
      thresh= 4.336E-08 alpha_mix =  0.300 |ddv_scf|^2 =  6.719E-14

      iter #   9 total cpu time :    23.1 secs   av.it.:   6.8
      thresh= 2.592E-08 alpha_mix =  0.300 |ddv_scf|^2 =  1.997E-16

     End of self-consistent calculation

     Convergence has been achieved 


     Representation #   8 mode #   8

     Self-consistent Calculation

      iter #   1 total cpu time :    23.3 secs   av.it.:   2.0
      thresh= 1.000E-02 alpha_mix =  0.300 |ddv_scf|^2 =  8.537E-08

      iter #   2 total cpu time :    23.5 secs   av.it.:   6.2
      thresh= 2.922E-05 alpha_mix =  0.300 |ddv_scf|^2 =  3.610E-08

      iter #   3 total cpu time :    23.7 secs   av.it.:   5.8
      thresh= 1.900E-05 alpha_mix =  0.300 |ddv_scf|^2 =  4.076E-09

      iter #   4 total cpu time :    24.0 secs   av.it.:   6.3
      thresh= 6.384E-06 alpha_mix =  0.300 |ddv_scf|^2 =  3.971E-11

      iter #   5 total cpu time :    24.2 secs   av.it.:   7.0
      thresh= 6.302E-07 alpha_mix =  0.300 |ddv_scf|^2 =  1.130E-11

      iter #   6 total cpu time :    24.4 secs   av.it.:   6.5
      thresh= 3.362E-07 alpha_mix =  0.300 |ddv_scf|^2 =  7.992E-13

      iter #   7 total cpu time :    24.6 secs   av.it.:   6.7
      thresh= 8.940E-08 alpha_mix =  0.300 |ddv_scf|^2 =  4.323E-15

      iter #   8 total cpu time :    24.9 secs   av.it.:   6.4
      thresh= 6.575E-09 alpha_mix =  0.300 |ddv_scf|^2 =  1.742E-15

      iter #   9 total cpu time :    25.1 secs   av.it.:   6.8
      thresh= 4.173E-09 alpha_mix =  0.300 |ddv_scf|^2 =  1.927E-17

     End of self-consistent calculation

     Convergence has been achieved 


     Representation #   9 mode #   9

     Self-consistent Calculation

      iter #   1 total cpu time :    25.3 secs   av.it.:   3.4
      thresh= 1.000E-02 alpha_mix =  0.300 |ddv_scf|^2 =  1.139E-03

      iter #   2 total cpu time :    25.6 secs   av.it.:   5.4
      thresh= 3.374E-03 alpha_mix =  0.300 |ddv_scf|^2 =  8.327E-03

      iter #   3 total cpu time :    25.8 secs   av.it.:   4.2
      thresh= 9.125E-03 alpha_mix =  0.300 |ddv_scf|^2 =  2.926E-07

      iter #   4 total cpu time :    26.0 secs   av.it.:   6.9
      thresh= 5.410E-05 alpha_mix =  0.300 |ddv_scf|^2 =  7.194E-08

      iter #   5 total cpu time :    26.2 secs   av.it.:   6.1
      thresh= 2.682E-05 alpha_mix =  0.300 |ddv_scf|^2 =  1.318E-08

      iter #   6 total cpu time :    26.5 secs   av.it.:   5.8
      thresh= 1.148E-05 alpha_mix =  0.300 |ddv_scf|^2 =  3.334E-09

      iter #   7 total cpu time :    26.7 secs   av.it.:   5.7
      thresh= 5.774E-06 alpha_mix =  0.300 |ddv_scf|^2 =  3.947E-09

      iter #   8 total cpu time :    26.9 secs   av.it.:   5.5
      thresh= 6.282E-06 alpha_mix =  0.300 |ddv_scf|^2 =  4.240E-10

      iter #   9 total cpu time :    27.1 secs   av.it.:   5.3
      thresh= 2.059E-06 alpha_mix =  0.300 |ddv_scf|^2 =  3.212E-11

      iter #  10 total cpu time :    27.3 secs   av.it.:   5.8
      thresh= 5.668E-07 alpha_mix =  0.300 |ddv_scf|^2 =  1.089E-11

      iter #  11 total cpu time :    27.6 secs   av.it.:   5.7
      thresh= 3.299E-07 alpha_mix =  0.300 |ddv_scf|^2 =  7.602E-13

      iter #  12 total cpu time :    27.8 secs   av.it.:   5.9
      thresh= 8.719E-08 alpha_mix =  0.300 |ddv_scf|^2 =  5.433E-14

      iter #  13 total cpu time :    28.0 secs   av.it.:   6.7
      thresh= 2.331E-08 alpha_mix =  0.300 |ddv_scf|^2 =  3.421E-14

      iter #  14 total cpu time :    28.2 secs   av.it.:   4.8
      thresh= 1.850E-08 alpha_mix =  0.300 |ddv_scf|^2 =  1.886E-15

      iter #  15 total cpu time :    28.4 secs   av.it.:   6.4
      thresh= 4.343E-09 alpha_mix =  0.300 |ddv_scf|^2 =  1.175E-16

     End of self-consistent calculation

     Convergence has been achieved 
 
     Number of q in the star =   12
     List of q in the star:
          1   0.125000000   0.216506351   0.145452854
          2   0.125000000   0.216506351  -0.145452854
          3  -0.125000000  -0.216506351  -0.145452854
          4  -0.125000000   0.216506351   0.145452854
          5   0.250000000   0.000000000   0.145452854
          6  -0.250000000  -0.000000000   0.145452854
          7   0.125000000  -0.216506351   0.145452854
          8   0.250000000   0.000000000  -0.145452854
          9  -0.250000000  -0.000000000  -0.145452854
         10  -0.125000000   0.216506351  -0.145452854
         11   0.125000000  -0.216506351  -0.145452854
         12  -0.125000000  -0.216506351   0.145452854

     Diagonalizing the dynamical matrix

     q = (    0.125000000   0.216506351   0.145452854 ) 

 **************************************************************************
     freq (    1) =       5.978329 [THz] =     199.415578 [cm-1]
     freq (    2) =       6.149591 [THz] =     205.128266 [cm-1]
     freq (    3) =       8.043179 [THz] =     268.291560 [cm-1]
     freq (    4) =      11.718818 [THz] =     390.897706 [cm-1]
     freq (    5) =      12.105234 [THz] =     403.787141 [cm-1]
     freq (    6) =      13.860621 [THz] =     462.340534 [cm-1]
     freq (    7) =      19.153972 [THz] =     638.907732 [cm-1]
     freq (    8) =      19.448981 [THz] =     648.748164 [cm-1]
     freq (    9) =      20.401978 [THz] =     680.536748 [cm-1]
 **************************************************************************

     Calculation of q =    0.1250000   0.2165064  -0.4363586
     [opt_tetra]  Optimized tetrahedron method is used.
 
     G-vector sticks info
     --------------------
     sticks:   dense  smooth     PW     G-vecs:    dense   smooth      PW
     Sum         649     313    121                15395     5449    1287
 
     Using Slab Decomposition
 

     Title: 
     Phonon                                                                     


     bravais-lattice index     =            0
     lattice parameter (alat)  =       5.8042  a.u.
     unit-cell volume          =     194.0373 (a.u.)^3
     number of atoms/cell      =            3
     number of atomic types    =            2
     number of electrons       =         8.00
     number of Kohn-Sham states=            8
     kinetic-energy cutoff     =      35.0000  Ry
     charge density cutoff     =     280.0000  Ry
     Exchange-correlation= PBE
                           (   1   4   3   4   0   0   0)

     celldm(1)=   5.804205  celldm(2)=   0.000000  celldm(3)=   0.000000
     celldm(4)=   0.000000  celldm(5)=   0.000000  celldm(6)=   0.000000

     crystal axes: (cart. coord. in units of alat)
               a(1) = (   1.000000   0.000000   0.000000 )  
               a(2) = (  -0.500000   0.866025   0.000000 )  
               a(3) = (   0.000000   0.000000   1.145847 )  

     reciprocal axes: (cart. coord. in units 2 pi/alat)
               b(1) = (  1.000000  0.577350  0.000000 )  
               b(2) = (  0.000000  1.154701  0.000000 )  
               b(3) = (  0.000000  0.000000  0.872717 )  


     PseudoPot. # 1 for B  read from file:
     ./B.pbe-n-kjpaw_psl.0.1.upf
     MD5 check sum: b4345a612e0782cca08559f453f3313f
     Pseudo is Projector augmented-wave + core cor, Zval =  3.0
     Generated using "atomic" code by A. Dal Corso  v.5.0.99 svn rev. 10869
     Shape of augmentation charge: BESSEL
     Using radial grid of 1059 points,  4 beta functions with: 
                l(1) =   0
                l(2) =   0
                l(3) =   1
                l(4) =   1
     Q(r) pseudized with 0 coefficients 


     PseudoPot. # 2 for Mg read from file:
     ./Mg.pbe-n-kjpaw_psl.0.3.0.upf
     MD5 check sum: 9eaefceb6cf3903db1b93e4e5c6adf9a
     Pseudo is Projector augmented-wave + core cor, Zval =  2.0
     Generated using "atomic" code by A. Dal Corso  v.5.0.99 svn rev. 10869
     Shape of augmentation charge: PSQ
     Using radial grid of 1129 points,  4 beta functions with: 
                l(1) =   0
                l(2) =   0
                l(3) =   1
                l(4) =   1
     Q(r) pseudized with 0 coefficients 


     atomic species   valence    mass     pseudopotential
     B                 3.00    10.81100     B ( 1.00)
     Mg                2.00    24.30500     Mg( 1.00)

     24 Sym. Ops., with inversion, found



   Cartesian axes

     site n.     atom                  positions (alat units)
         1        Mg     tau(   1) = (   0.0000000   0.0000000   0.0000000  )
         2        B      tau(   2) = (  -0.0000000   0.5773503   0.5729233  )
         3        B      tau(   3) = (   0.5000000   0.2886751   0.5729233  )

     number of k points=   288 (tetrahedron method)

     Number of k-points >= 100: set verbosity='high' to print them.

     Dense  grid:    15395 G-vectors     FFT dimensions: (  32,  32,  36)

     Smooth grid:     5449 G-vectors     FFT dimensions: (  24,  24,  25)

     Estimated max dynamical RAM per process >       7.73 MB

     Estimated total dynamical RAM >     494.50 MB

     Check: negative core charge=   -0.000006

     The potential is recalculated from file :
     ./_ph0/pwscf.q_2/pwscf.save/charge-density

     Starting wfcs are   12 atomic wfcs
     Checking if some PAW data can be deallocated... 

     Band Structure Calculation
     Davidson diagonalization with overlap

     ethr =  1.25E-10,  avg # of iterations = 19.7

     total cpu time spent up to now is        1.0 secs

     End of band structure calculation

     Number of k-points >= 100: set verbosity='high' to print the bands.

     the Fermi energy is     7.6604 ev
 
     [dfpt_tetra]  Dos(E_F)[/Ry] :   0.8845642E+01

     Phonon                                                                     

     bravais-lattice index     =            0
     lattice parameter (alat)  =       5.8042  a.u.
     unit-cell volume          =     194.0373 (a.u.)^3
     number of atoms/cell      =            3
     number of atomic types    =            2
     kinetic-energy cut-off    =      35.0000  Ry
     charge density cut-off    =     280.0000  Ry
     convergence threshold     =      1.0E-15
     beta                      =       0.3000
     number of iterations used =            4
     Exchange-correlation= PBE
                           (   1   4   3   4   0   0   0)


     celldm(1)=    5.80420  celldm(2)=    0.00000  celldm(3)=    0.00000
     celldm(4)=    0.00000  celldm(5)=    0.00000  celldm(6)=    0.00000

     crystal axes: (cart. coord. in units of alat)
               a(1) = (  1.0000  0.0000  0.0000 )  
               a(2) = ( -0.5000  0.8660  0.0000 )  
               a(3) = (  0.0000  0.0000  1.1458 )  

     reciprocal axes: (cart. coord. in units 2 pi/alat)
               b(1) = (  1.0000  0.5774  0.0000 )  
               b(2) = (  0.0000  1.1547  0.0000 )  
               b(3) = (  0.0000  0.0000  0.8727 )  


     Atoms inside the unit cell: 

     Cartesian axes

     site n.  atom      mass           positions (alat units)
        1  Mg     24.3050   tau(    1) = (    0.00000    0.00000    0.00000  )
        2  B      10.8110   tau(    2) = (   -0.00000    0.57735    0.57292  )
        3  B      10.8110   tau(    3) = (    0.50000    0.28868    0.57292  )

     Computing dynamical matrix for 
                    q = (   0.1250000   0.2165064  -0.4363586 )
 
      4 Sym.Ops. (no q -> -q+G )


     G cutoff =  238.9372  (  15395 G-vectors)     FFT grid: ( 32, 32, 36)
     G cutoff =  119.4686  (   5449 G-vectors)  smooth grid: ( 24, 24, 25)
     number of k points=   288

     PseudoPot. # 1 for B  read from file:
     ./B.pbe-n-kjpaw_psl.0.1.upf
     MD5 check sum: b4345a612e0782cca08559f453f3313f
     Pseudo is Projector augmented-wave + core cor, Zval =  3.0
     Generated using "atomic" code by A. Dal Corso  v.5.0.99 svn rev. 10869
     Shape of augmentation charge: BESSEL
     Using radial grid of 1059 points,  4 beta functions with: 
                l(1) =   0
                l(2) =   0
                l(3) =   1
                l(4) =   1
     Q(r) pseudized with 0 coefficients 


     PseudoPot. # 2 for Mg read from file:
     ./Mg.pbe-n-kjpaw_psl.0.3.0.upf
     MD5 check sum: 9eaefceb6cf3903db1b93e4e5c6adf9a
     Pseudo is Projector augmented-wave + core cor, Zval =  2.0
     Generated using "atomic" code by A. Dal Corso  v.5.0.99 svn rev. 10869
     Shape of augmentation charge: PSQ
     Using radial grid of 1129 points,  4 beta functions with: 
                l(1) =   0
                l(2) =   0
                l(3) =   1
                l(4) =   1
     Q(r) pseudized with 0 coefficients 



     Atomic displacements:
     There are    9 irreducible representations

     Representation     1      1 modes -  To be done

     Representation     2      1 modes -  To be done

     Representation     3      1 modes -  To be done

     Representation     4      1 modes -  To be done

     Representation     5      1 modes -  To be done

     Representation     6      1 modes -  To be done

     Representation     7      1 modes -  To be done

     Representation     8      1 modes -  To be done

     Representation     9      1 modes -  To be done



     Alpha used in Ewald sum =   2.8000
     PHONON       :     29.02s CPU     30.37s WALL



     Representation #   1 mode #   1

     Self-consistent Calculation

      iter #   1 total cpu time :    30.6 secs   av.it.:   2.9
      thresh= 1.000E-02 alpha_mix =  0.300 |ddv_scf|^2 =  9.206E-06

      iter #   2 total cpu time :    30.8 secs   av.it.:   5.6
      thresh= 3.034E-04 alpha_mix =  0.300 |ddv_scf|^2 =  4.319E-06

      iter #   3 total cpu time :    31.1 secs   av.it.:   5.1
      thresh= 2.078E-04 alpha_mix =  0.300 |ddv_scf|^2 =  1.731E-07

      iter #   4 total cpu time :    31.3 secs   av.it.:   5.9
      thresh= 4.160E-05 alpha_mix =  0.300 |ddv_scf|^2 =  1.168E-08

      iter #   5 total cpu time :    31.5 secs   av.it.:   5.6
      thresh= 1.081E-05 alpha_mix =  0.300 |ddv_scf|^2 =  5.764E-10

      iter #   6 total cpu time :    31.7 secs   av.it.:   5.8
      thresh= 2.401E-06 alpha_mix =  0.300 |ddv_scf|^2 =  1.090E-10

      iter #   7 total cpu time :    32.0 secs   av.it.:   5.9
      thresh= 1.044E-06 alpha_mix =  0.300 |ddv_scf|^2 =  3.770E-12

      iter #   8 total cpu time :    32.2 secs   av.it.:   5.3
      thresh= 1.942E-07 alpha_mix =  0.300 |ddv_scf|^2 =  1.742E-12

      iter #   9 total cpu time :    32.4 secs   av.it.:   5.4
      thresh= 1.320E-07 alpha_mix =  0.300 |ddv_scf|^2 =  6.281E-13

      iter #  10 total cpu time :    32.6 secs   av.it.:   5.9
      thresh= 7.925E-08 alpha_mix =  0.300 |ddv_scf|^2 =  6.714E-15

      iter #  11 total cpu time :    32.8 secs   av.it.:   6.3
      thresh= 8.194E-09 alpha_mix =  0.300 |ddv_scf|^2 =  5.751E-16

     End of self-consistent calculation

     Convergence has been achieved 


     Representation #   2 mode #   2

     Self-consistent Calculation

      iter #   1 total cpu time :    33.1 secs   av.it.:   2.6
      thresh= 1.000E-02 alpha_mix =  0.300 |ddv_scf|^2 =  2.294E-05

      iter #   2 total cpu time :    33.3 secs   av.it.:   5.3
      thresh= 4.789E-04 alpha_mix =  0.300 |ddv_scf|^2 =  1.066E-05

      iter #   3 total cpu time :    33.5 secs   av.it.:   5.1
      thresh= 3.265E-04 alpha_mix =  0.300 |ddv_scf|^2 =  2.119E-08

      iter #   4 total cpu time :    33.7 secs   av.it.:   5.8
      thresh= 1.456E-05 alpha_mix =  0.300 |ddv_scf|^2 =  2.053E-09

      iter #   5 total cpu time :    33.9 secs   av.it.:   5.4
      thresh= 4.531E-06 alpha_mix =  0.300 |ddv_scf|^2 =  1.921E-10

      iter #   6 total cpu time :    34.1 secs   av.it.:   5.8
      thresh= 1.386E-06 alpha_mix =  0.300 |ddv_scf|^2 =  3.286E-12

      iter #   7 total cpu time :    34.4 secs   av.it.:   6.1
      thresh= 1.813E-07 alpha_mix =  0.300 |ddv_scf|^2 =  1.560E-13

      iter #   8 total cpu time :    34.6 secs   av.it.:   5.7
      thresh= 3.950E-08 alpha_mix =  0.300 |ddv_scf|^2 =  1.666E-14

      iter #   9 total cpu time :    34.8 secs   av.it.:   6.2
      thresh= 1.291E-08 alpha_mix =  0.300 |ddv_scf|^2 =  1.078E-15

      iter #  10 total cpu time :    35.0 secs   av.it.:   5.7
      thresh= 3.283E-09 alpha_mix =  0.300 |ddv_scf|^2 =  2.123E-16

     End of self-consistent calculation

     Convergence has been achieved 


     Representation #   3 mode #   3

     Self-consistent Calculation

      iter #   1 total cpu time :    35.3 secs   av.it.:   2.6
      thresh= 1.000E-02 alpha_mix =  0.300 |ddv_scf|^2 =  3.403E-07

      iter #   2 total cpu time :    35.5 secs   av.it.:   5.7
      thresh= 5.833E-05 alpha_mix =  0.300 |ddv_scf|^2 =  1.311E-07

      iter #   3 total cpu time :    35.8 secs   av.it.:   5.6
      thresh= 3.621E-05 alpha_mix =  0.300 |ddv_scf|^2 =  1.430E-08

      iter #   4 total cpu time :    36.0 secs   av.it.:   5.9
      thresh= 1.196E-05 alpha_mix =  0.300 |ddv_scf|^2 =  8.517E-10

      iter #   5 total cpu time :    36.2 secs   av.it.:   6.0
      thresh= 2.918E-06 alpha_mix =  0.300 |ddv_scf|^2 =  3.875E-11

      iter #   6 total cpu time :    36.5 secs   av.it.:   5.7
      thresh= 6.225E-07 alpha_mix =  0.300 |ddv_scf|^2 =  1.153E-11

      iter #   7 total cpu time :    36.8 secs   av.it.:   5.7
      thresh= 3.395E-07 alpha_mix =  0.300 |ddv_scf|^2 =  7.660E-14

      iter #   8 total cpu time :    37.0 secs   av.it.:   5.9
      thresh= 2.768E-08 alpha_mix =  0.300 |ddv_scf|^2 =  2.824E-14

      iter #   9 total cpu time :    37.3 secs   av.it.:   6.1
      thresh= 1.680E-08 alpha_mix =  0.300 |ddv_scf|^2 =  2.108E-16

     End of self-consistent calculation

     Convergence has been achieved 


     Representation #   4 mode #   4

     Self-consistent Calculation

      iter #   1 total cpu time :    37.5 secs   av.it.:   3.3
      thresh= 1.000E-02 alpha_mix =  0.300 |ddv_scf|^2 =  9.721E-05

      iter #   2 total cpu time :    37.7 secs   av.it.:   5.1
      thresh= 9.859E-04 alpha_mix =  0.300 |ddv_scf|^2 =  1.679E-06

      iter #   3 total cpu time :    37.9 secs   av.it.:   5.3
      thresh= 1.296E-04 alpha_mix =  0.300 |ddv_scf|^2 =  6.611E-08

      iter #   4 total cpu time :    38.1 secs   av.it.:   5.7
      thresh= 2.571E-05 alpha_mix =  0.300 |ddv_scf|^2 =  4.761E-10

      iter #   5 total cpu time :    38.4 secs   av.it.:   5.7
      thresh= 2.182E-06 alpha_mix =  0.300 |ddv_scf|^2 =  1.569E-10

      iter #   6 total cpu time :    38.6 secs   av.it.:   5.9
      thresh= 1.253E-06 alpha_mix =  0.300 |ddv_scf|^2 =  3.483E-12

      iter #   7 total cpu time :    38.8 secs   av.it.:   6.1
      thresh= 1.866E-07 alpha_mix =  0.300 |ddv_scf|^2 =  1.022E-14

      iter #   8 total cpu time :    39.0 secs   av.it.:   6.5
      thresh= 1.011E-08 alpha_mix =  0.300 |ddv_scf|^2 =  1.293E-15

      iter #   9 total cpu time :    39.3 secs   av.it.:   6.0
      thresh= 3.595E-09 alpha_mix =  0.300 |ddv_scf|^2 =  2.387E-16

     End of self-consistent calculation

     Convergence has been achieved 


     Representation #   5 mode #   5

     Self-consistent Calculation

      iter #   1 total cpu time :    39.5 secs   av.it.:   2.4
      thresh= 1.000E-02 alpha_mix =  0.300 |ddv_scf|^2 =  4.091E-07

      iter #   2 total cpu time :    39.7 secs   av.it.:   5.5
      thresh= 6.396E-05 alpha_mix =  0.300 |ddv_scf|^2 =  1.679E-07

      iter #   3 total cpu time :    39.9 secs   av.it.:   5.5
      thresh= 4.098E-05 alpha_mix =  0.300 |ddv_scf|^2 =  6.852E-09

      iter #   4 total cpu time :    40.1 secs   av.it.:   5.5
      thresh= 8.278E-06 alpha_mix =  0.300 |ddv_scf|^2 =  1.787E-10

      iter #   5 total cpu time :    40.4 secs   av.it.:   6.0
      thresh= 1.337E-06 alpha_mix =  0.300 |ddv_scf|^2 =  2.212E-11

      iter #   6 total cpu time :    40.6 secs   av.it.:   5.7
      thresh= 4.704E-07 alpha_mix =  0.300 |ddv_scf|^2 =  4.275E-14

      iter #   7 total cpu time :    40.8 secs   av.it.:   6.3
      thresh= 2.068E-08 alpha_mix =  0.300 |ddv_scf|^2 =  5.057E-15

      iter #   8 total cpu time :    41.0 secs   av.it.:   6.1
      thresh= 7.111E-09 alpha_mix =  0.300 |ddv_scf|^2 =  3.521E-17

     End of self-consistent calculation

     Convergence has been achieved 


     Representation #   6 mode #   6

     Self-consistent Calculation

      iter #   1 total cpu time :    41.2 secs   av.it.:   2.2
      thresh= 1.000E-02 alpha_mix =  0.300 |ddv_scf|^2 =  3.379E-06

      iter #   2 total cpu time :    41.5 secs   av.it.:   5.3
      thresh= 1.838E-04 alpha_mix =  0.300 |ddv_scf|^2 =  9.937E-08

      iter #   3 total cpu time :    41.7 secs   av.it.:   5.2
      thresh= 3.152E-05 alpha_mix =  0.300 |ddv_scf|^2 =  1.815E-08

      iter #   4 total cpu time :    41.9 secs   av.it.:   5.4
      thresh= 1.347E-05 alpha_mix =  0.300 |ddv_scf|^2 =  7.359E-11

      iter #   5 total cpu time :    42.2 secs   av.it.:   5.8
      thresh= 8.578E-07 alpha_mix =  0.300 |ddv_scf|^2 =  1.163E-11

      iter #   6 total cpu time :    42.4 secs   av.it.:   6.0
      thresh= 3.410E-07 alpha_mix =  0.300 |ddv_scf|^2 =  1.347E-13

      iter #   7 total cpu time :    42.7 secs   av.it.:   5.9
      thresh= 3.670E-08 alpha_mix =  0.300 |ddv_scf|^2 =  1.732E-14

      iter #   8 total cpu time :    42.9 secs   av.it.:   6.1
      thresh= 1.316E-08 alpha_mix =  0.300 |ddv_scf|^2 =  3.149E-16

     End of self-consistent calculation

     Convergence has been achieved 


     Representation #   7 mode #   7

     Self-consistent Calculation

      iter #   1 total cpu time :    43.1 secs   av.it.:   2.9
      thresh= 1.000E-02 alpha_mix =  0.300 |ddv_scf|^2 =  2.278E-06

      iter #   2 total cpu time :    43.4 secs   av.it.:   5.7
      thresh= 1.509E-04 alpha_mix =  0.300 |ddv_scf|^2 =  3.403E-07

      iter #   3 total cpu time :    43.6 secs   av.it.:   5.6
      thresh= 5.833E-05 alpha_mix =  0.300 |ddv_scf|^2 =  4.406E-08

      iter #   4 total cpu time :    43.8 secs   av.it.:   6.0
      thresh= 2.099E-05 alpha_mix =  0.300 |ddv_scf|^2 =  2.903E-09

      iter #   5 total cpu time :    44.0 secs   av.it.:   5.8
      thresh= 5.388E-06 alpha_mix =  0.300 |ddv_scf|^2 =  5.618E-11

      iter #   6 total cpu time :    44.2 secs   av.it.:   5.4
      thresh= 7.496E-07 alpha_mix =  0.300 |ddv_scf|^2 =  2.159E-11

      iter #   7 total cpu time :    44.4 secs   av.it.:   5.0
      thresh= 4.647E-07 alpha_mix =  0.300 |ddv_scf|^2 =  7.276E-14

      iter #   8 total cpu time :    44.6 secs   av.it.:   5.9
      thresh= 2.697E-08 alpha_mix =  0.300 |ddv_scf|^2 =  2.736E-14

      iter #   9 total cpu time :    44.9 secs   av.it.:   6.0
      thresh= 1.654E-08 alpha_mix =  0.300 |ddv_scf|^2 =  6.488E-17

     End of self-consistent calculation

     Convergence has been achieved 


     Representation #   8 mode #   8

     Self-consistent Calculation

      iter #   1 total cpu time :    45.1 secs   av.it.:   3.0
      thresh= 1.000E-02 alpha_mix =  0.300 |ddv_scf|^2 =  5.640E-05

      iter #   2 total cpu time :    45.3 secs   av.it.:   5.3
      thresh= 7.510E-04 alpha_mix =  0.300 |ddv_scf|^2 =  2.396E-05

      iter #   3 total cpu time :    45.5 secs   av.it.:   5.0
      thresh= 4.895E-04 alpha_mix =  0.300 |ddv_scf|^2 =  1.811E-07

      iter #   4 total cpu time :    45.7 secs   av.it.:   5.9
      thresh= 4.255E-05 alpha_mix =  0.300 |ddv_scf|^2 =  1.124E-08

      iter #   5 total cpu time :    45.9 secs   av.it.:   5.2
      thresh= 1.060E-05 alpha_mix =  0.300 |ddv_scf|^2 =  2.288E-09

      iter #   6 total cpu time :    46.2 secs   av.it.:   5.8
      thresh= 4.783E-06 alpha_mix =  0.300 |ddv_scf|^2 =  6.761E-11

      iter #   7 total cpu time :    46.4 secs   av.it.:   6.0
      thresh= 8.223E-07 alpha_mix =  0.300 |ddv_scf|^2 =  1.084E-12

      iter #   8 total cpu time :    46.6 secs   av.it.:   5.6
      thresh= 1.041E-07 alpha_mix =  0.300 |ddv_scf|^2 =  3.263E-13

      iter #   9 total cpu time :    46.8 secs   av.it.:   6.1
      thresh= 5.712E-08 alpha_mix =  0.300 |ddv_scf|^2 =  4.204E-14

      iter #  10 total cpu time :    47.0 secs   av.it.:   6.1
      thresh= 2.050E-08 alpha_mix =  0.300 |ddv_scf|^2 =  7.430E-16

     End of self-consistent calculation

     Convergence has been achieved 


     Representation #   9 mode #   9

     Self-consistent Calculation

      iter #   1 total cpu time :    47.2 secs   av.it.:   1.8
      thresh= 1.000E-02 alpha_mix =  0.300 |ddv_scf|^2 =  7.209E-08

      iter #   2 total cpu time :    47.4 secs   av.it.:   5.4
      thresh= 2.685E-05 alpha_mix =  0.300 |ddv_scf|^2 =  3.498E-08

      iter #   3 total cpu time :    47.6 secs   av.it.:   5.3
      thresh= 1.870E-05 alpha_mix =  0.300 |ddv_scf|^2 =  1.152E-10

      iter #   4 total cpu time :    47.9 secs   av.it.:   6.1
      thresh= 1.073E-06 alpha_mix =  0.300 |ddv_scf|^2 =  1.768E-11

      iter #   5 total cpu time :    48.1 secs   av.it.:   5.8
      thresh= 4.204E-07 alpha_mix =  0.300 |ddv_scf|^2 =  1.567E-12

      iter #   6 total cpu time :    48.3 secs   av.it.:   5.8
      thresh= 1.252E-07 alpha_mix =  0.300 |ddv_scf|^2 =  9.869E-15

      iter #   7 total cpu time :    48.5 secs   av.it.:   5.6
      thresh= 9.934E-09 alpha_mix =  0.300 |ddv_scf|^2 =  2.688E-15

      iter #   8 total cpu time :    48.8 secs   av.it.:   5.8
      thresh= 5.185E-09 alpha_mix =  0.300 |ddv_scf|^2 =  2.205E-17

     End of self-consistent calculation

     Convergence has been achieved 
 
     Number of q in the star =    6
     List of q in the star:
          1   0.125000000   0.216506351  -0.436358562
          2  -0.125000000   0.216506351  -0.436358562
          3   0.250000000   0.000000000  -0.436358562
          4  -0.250000000  -0.000000000  -0.436358562
          5   0.125000000  -0.216506351  -0.436358562
          6  -0.125000000  -0.216506351   0.436358562

     Diagonalizing the dynamical matrix

     q = (    0.125000000   0.216506351  -0.436358562 ) 

 **************************************************************************
     freq (    1) =       7.263079 [THz] =     242.270224 [cm-1]
     freq (    2) =       7.587511 [THz] =     253.092110 [cm-1]
     freq (    3) =       8.634558 [THz] =     288.017855 [cm-1]
     freq (    4) =      10.962936 [THz] =     365.684167 [cm-1]
     freq (    5) =      12.736161 [THz] =     424.832589 [cm-1]
     freq (    6) =      13.799910 [THz] =     460.315444 [cm-1]
     freq (    7) =      18.963873 [THz] =     632.566699 [cm-1]
     freq (    8) =      19.288485 [THz] =     643.394621 [cm-1]
     freq (    9) =      21.244828 [THz] =     708.651178 [cm-1]
 **************************************************************************

     Calculation of q =    0.1250000   0.5051815   0.1454529
     [opt_tetra]  Optimized tetrahedron method is used.
 
     G-vector sticks info
     --------------------
     sticks:   dense  smooth     PW     G-vecs:    dense   smooth      PW
     Sum         649     313    121                15395     5449    1287
 
     Using Slab Decomposition
 

     Title: 
     Phonon                                                                     


     bravais-lattice index     =            0
     lattice parameter (alat)  =       5.8042  a.u.
     unit-cell volume          =     194.0373 (a.u.)^3
     number of atoms/cell      =            3
     number of atomic types    =            2
     number of electrons       =         8.00
     number of Kohn-Sham states=            8
     kinetic-energy cutoff     =      35.0000  Ry
     charge density cutoff     =     280.0000  Ry
     Exchange-correlation= PBE
                           (   1   4   3   4   0   0   0)

     celldm(1)=   5.804205  celldm(2)=   0.000000  celldm(3)=   0.000000
     celldm(4)=   0.000000  celldm(5)=   0.000000  celldm(6)=   0.000000

     crystal axes: (cart. coord. in units of alat)
               a(1) = (   1.000000   0.000000   0.000000 )  
               a(2) = (  -0.500000   0.866025   0.000000 )  
               a(3) = (   0.000000   0.000000   1.145847 )  

     reciprocal axes: (cart. coord. in units 2 pi/alat)
               b(1) = (  1.000000  0.577350  0.000000 )  
               b(2) = (  0.000000  1.154701  0.000000 )  
               b(3) = (  0.000000  0.000000  0.872717 )  


     PseudoPot. # 1 for B  read from file:
     ./B.pbe-n-kjpaw_psl.0.1.upf
     MD5 check sum: b4345a612e0782cca08559f453f3313f
     Pseudo is Projector augmented-wave + core cor, Zval =  3.0
     Generated using "atomic" code by A. Dal Corso  v.5.0.99 svn rev. 10869
     Shape of augmentation charge: BESSEL
     Using radial grid of 1059 points,  4 beta functions with: 
                l(1) =   0
                l(2) =   0
                l(3) =   1
                l(4) =   1
     Q(r) pseudized with 0 coefficients 


     PseudoPot. # 2 for Mg read from file:
     ./Mg.pbe-n-kjpaw_psl.0.3.0.upf
     MD5 check sum: 9eaefceb6cf3903db1b93e4e5c6adf9a
     Pseudo is Projector augmented-wave + core cor, Zval =  2.0
     Generated using "atomic" code by A. Dal Corso  v.5.0.99 svn rev. 10869
     Shape of augmentation charge: PSQ
     Using radial grid of 1129 points,  4 beta functions with: 
                l(1) =   0
                l(2) =   0
                l(3) =   1
                l(4) =   1
     Q(r) pseudized with 0 coefficients 


     atomic species   valence    mass     pseudopotential
     B                 3.00    10.81100     B ( 1.00)
     Mg                2.00    24.30500     Mg( 1.00)

     24 Sym. Ops., with inversion, found



   Cartesian axes

     site n.     atom                  positions (alat units)
         1        Mg     tau(   1) = (   0.0000000   0.0000000   0.0000000  )
         2        B      tau(   2) = (  -0.0000000   0.5773503   0.5729233  )
         3        B      tau(   3) = (   0.5000000   0.2886751   0.5729233  )

     number of k points=   768 (tetrahedron method)

     Number of k-points >= 100: set verbosity='high' to print them.

     Dense  grid:    15395 G-vectors     FFT dimensions: (  32,  32,  36)

     Smooth grid:     5449 G-vectors     FFT dimensions: (  24,  24,  25)

     Estimated max dynamical RAM per process >       8.23 MB

     Estimated total dynamical RAM >     526.40 MB

     Check: negative core charge=   -0.000006

     The potential is recalculated from file :
     ./_ph0/pwscf.q_3/pwscf.save/charge-density

     Starting wfcs are   12 atomic wfcs
     Checking if some PAW data can be deallocated... 

     Band Structure Calculation
     Davidson diagonalization with overlap

     ethr =  1.25E-10,  avg # of iterations = 20.3

     total cpu time spent up to now is        1.6 secs

     End of band structure calculation

     Number of k-points >= 100: set verbosity='high' to print the bands.

     the Fermi energy is     7.6604 ev
 
     [dfpt_tetra]  Dos(E_F)[/Ry] :   0.8845642E+01

     Phonon                                                                     

     bravais-lattice index     =            0
     lattice parameter (alat)  =       5.8042  a.u.
     unit-cell volume          =     194.0373 (a.u.)^3
     number of atoms/cell      =            3
     number of atomic types    =            2
     kinetic-energy cut-off    =      35.0000  Ry
     charge density cut-off    =     280.0000  Ry
     convergence threshold     =      1.0E-15
     beta                      =       0.3000
     number of iterations used =            4
     Exchange-correlation= PBE
                           (   1   4   3   4   0   0   0)


     celldm(1)=    5.80420  celldm(2)=    0.00000  celldm(3)=    0.00000
     celldm(4)=    0.00000  celldm(5)=    0.00000  celldm(6)=    0.00000

     crystal axes: (cart. coord. in units of alat)
               a(1) = (  1.0000  0.0000  0.0000 )  
               a(2) = ( -0.5000  0.8660  0.0000 )  
               a(3) = (  0.0000  0.0000  1.1458 )  

     reciprocal axes: (cart. coord. in units 2 pi/alat)
               b(1) = (  1.0000  0.5774  0.0000 )  
               b(2) = (  0.0000  1.1547  0.0000 )  
               b(3) = (  0.0000  0.0000  0.8727 )  


     Atoms inside the unit cell: 

     Cartesian axes

     site n.  atom      mass           positions (alat units)
        1  Mg     24.3050   tau(    1) = (    0.00000    0.00000    0.00000  )
        2  B      10.8110   tau(    2) = (   -0.00000    0.57735    0.57292  )
        3  B      10.8110   tau(    3) = (    0.50000    0.28868    0.57292  )

     Computing dynamical matrix for 
                    q = (   0.1250000   0.5051815   0.1454529 )
 
     No symmetry!

     G cutoff =  238.9372  (  15395 G-vectors)     FFT grid: ( 32, 32, 36)
     G cutoff =  119.4686  (   5449 G-vectors)  smooth grid: ( 24, 24, 25)
     number of k points=   768

     PseudoPot. # 1 for B  read from file:
     ./B.pbe-n-kjpaw_psl.0.1.upf
     MD5 check sum: b4345a612e0782cca08559f453f3313f
     Pseudo is Projector augmented-wave + core cor, Zval =  3.0
     Generated using "atomic" code by A. Dal Corso  v.5.0.99 svn rev. 10869
     Shape of augmentation charge: BESSEL
     Using radial grid of 1059 points,  4 beta functions with: 
                l(1) =   0
                l(2) =   0
                l(3) =   1
                l(4) =   1
     Q(r) pseudized with 0 coefficients 


     PseudoPot. # 2 for Mg read from file:
     ./Mg.pbe-n-kjpaw_psl.0.3.0.upf
     MD5 check sum: 9eaefceb6cf3903db1b93e4e5c6adf9a
     Pseudo is Projector augmented-wave + core cor, Zval =  2.0
     Generated using "atomic" code by A. Dal Corso  v.5.0.99 svn rev. 10869
     Shape of augmentation charge: PSQ
     Using radial grid of 1129 points,  4 beta functions with: 
                l(1) =   0
                l(2) =   0
                l(3) =   1
                l(4) =   1
     Q(r) pseudized with 0 coefficients 



     Atomic displacements:
     There are    9 irreducible representations

     Representation     1      1 modes -  To be done

     Representation     2      1 modes -  To be done

     Representation     3      1 modes -  To be done

     Representation     4      1 modes -  To be done

     Representation     5      1 modes -  To be done

     Representation     6      1 modes -  To be done

     Representation     7      1 modes -  To be done

     Representation     8      1 modes -  To be done

     Representation     9      1 modes -  To be done



     Alpha used in Ewald sum =   2.8000
     PHONON       :     48.79s CPU     50.97s WALL



     Representation #   1 mode #   1

     Self-consistent Calculation

      iter #   1 total cpu time :    51.2 secs   av.it.:   3.1
      thresh= 1.000E-02 alpha_mix =  0.300 |ddv_scf|^2 =  3.052E-05

      iter #   2 total cpu time :    51.5 secs   av.it.:   5.7
      thresh= 5.524E-04 alpha_mix =  0.300 |ddv_scf|^2 =  2.115E-06

      iter #   3 total cpu time :    51.7 secs   av.it.:   6.0
      thresh= 1.454E-04 alpha_mix =  0.300 |ddv_scf|^2 =  9.546E-08

      iter #   4 total cpu time :    52.0 secs   av.it.:   6.2
      thresh= 3.090E-05 alpha_mix =  0.300 |ddv_scf|^2 =  3.012E-08

      iter #   5 total cpu time :    52.2 secs   av.it.:   6.7
      thresh= 1.736E-05 alpha_mix =  0.300 |ddv_scf|^2 =  2.458E-09

      iter #   6 total cpu time :    52.5 secs   av.it.:   7.0
      thresh= 4.958E-06 alpha_mix =  0.300 |ddv_scf|^2 =  1.085E-10

      iter #   7 total cpu time :    52.7 secs   av.it.:   6.3
      thresh= 1.042E-06 alpha_mix =  0.300 |ddv_scf|^2 =  3.301E-11

      iter #   8 total cpu time :    53.0 secs   av.it.:   6.8
      thresh= 5.745E-07 alpha_mix =  0.300 |ddv_scf|^2 =  2.516E-12

      iter #   9 total cpu time :    53.3 secs   av.it.:   6.9
      thresh= 1.586E-07 alpha_mix =  0.300 |ddv_scf|^2 =  7.076E-14

      iter #  10 total cpu time :    53.6 secs   av.it.:   6.6
      thresh= 2.660E-08 alpha_mix =  0.300 |ddv_scf|^2 =  1.232E-14

      iter #  11 total cpu time :    53.8 secs   av.it.:   6.9
      thresh= 1.110E-08 alpha_mix =  0.300 |ddv_scf|^2 =  2.840E-15

      iter #  12 total cpu time :    54.1 secs   av.it.:   7.0
      thresh= 5.329E-09 alpha_mix =  0.300 |ddv_scf|^2 =  3.401E-16

     End of self-consistent calculation

     Convergence has been achieved 


     Representation #   2 mode #   2

     Self-consistent Calculation

      iter #   1 total cpu time :    54.3 secs   av.it.:   2.0
      thresh= 1.000E-02 alpha_mix =  0.300 |ddv_scf|^2 =  5.144E-07

      iter #   2 total cpu time :    54.6 secs   av.it.:   6.3
      thresh= 7.172E-05 alpha_mix =  0.300 |ddv_scf|^2 =  6.634E-08

      iter #   3 total cpu time :    54.8 secs   av.it.:   5.8
      thresh= 2.576E-05 alpha_mix =  0.300 |ddv_scf|^2 =  1.820E-08

      iter #   4 total cpu time :    55.1 secs   av.it.:   6.2
      thresh= 1.349E-05 alpha_mix =  0.300 |ddv_scf|^2 =  2.459E-09

      iter #   5 total cpu time :    55.3 secs   av.it.:   6.1
      thresh= 4.959E-06 alpha_mix =  0.300 |ddv_scf|^2 =  1.653E-10

      iter #   6 total cpu time :    55.6 secs   av.it.:   6.6
      thresh= 1.286E-06 alpha_mix =  0.300 |ddv_scf|^2 =  4.959E-12

      iter #   7 total cpu time :    55.8 secs   av.it.:   6.7
      thresh= 2.227E-07 alpha_mix =  0.300 |ddv_scf|^2 =  1.073E-12

      iter #   8 total cpu time :    56.1 secs   av.it.:   6.7
      thresh= 1.036E-07 alpha_mix =  0.300 |ddv_scf|^2 =  1.403E-13

      iter #   9 total cpu time :    56.3 secs   av.it.:   6.8
      thresh= 3.746E-08 alpha_mix =  0.300 |ddv_scf|^2 =  6.724E-15

      iter #  10 total cpu time :    56.6 secs   av.it.:   6.2
      thresh= 8.200E-09 alpha_mix =  0.300 |ddv_scf|^2 =  1.633E-15

      iter #  11 total cpu time :    56.9 secs   av.it.:   6.4
      thresh= 4.041E-09 alpha_mix =  0.300 |ddv_scf|^2 =  5.479E-16

     End of self-consistent calculation

     Convergence has been achieved 


     Representation #   3 mode #   3

     Self-consistent Calculation

      iter #   1 total cpu time :    57.2 secs   av.it.:   3.0
      thresh= 1.000E-02 alpha_mix =  0.300 |ddv_scf|^2 =  3.386E-06

      iter #   2 total cpu time :    57.4 secs   av.it.:   6.5
      thresh= 1.840E-04 alpha_mix =  0.300 |ddv_scf|^2 =  3.700E-07

      iter #   3 total cpu time :    57.7 secs   av.it.:   6.4
      thresh= 6.083E-05 alpha_mix =  0.300 |ddv_scf|^2 =  7.249E-08

      iter #   4 total cpu time :    58.0 secs   av.it.:   6.4
      thresh= 2.692E-05 alpha_mix =  0.300 |ddv_scf|^2 =  1.643E-08

      iter #   5 total cpu time :    58.2 secs   av.it.:   6.5
      thresh= 1.282E-05 alpha_mix =  0.300 |ddv_scf|^2 =  3.907E-09

      iter #   6 total cpu time :    58.5 secs   av.it.:   6.8
      thresh= 6.251E-06 alpha_mix =  0.300 |ddv_scf|^2 =  2.000E-10

      iter #   7 total cpu time :    58.7 secs   av.it.:   7.1
      thresh= 1.414E-06 alpha_mix =  0.300 |ddv_scf|^2 =  1.930E-11

      iter #   8 total cpu time :    59.0 secs   av.it.:   6.9
      thresh= 4.393E-07 alpha_mix =  0.300 |ddv_scf|^2 =  3.697E-12

      iter #   9 total cpu time :    59.3 secs   av.it.:   6.7
      thresh= 1.923E-07 alpha_mix =  0.300 |ddv_scf|^2 =  1.235E-13

      iter #  10 total cpu time :    59.5 secs   av.it.:   7.0
      thresh= 3.515E-08 alpha_mix =  0.300 |ddv_scf|^2 =  1.641E-14

      iter #  11 total cpu time :    59.8 secs   av.it.:   6.6
      thresh= 1.281E-08 alpha_mix =  0.300 |ddv_scf|^2 =  5.132E-15

      iter #  12 total cpu time :    60.0 secs   av.it.:   7.1
      thresh= 7.164E-09 alpha_mix =  0.300 |ddv_scf|^2 =  7.503E-16

     End of self-consistent calculation

     Convergence has been achieved 


     Representation #   4 mode #   4

     Self-consistent Calculation

      iter #   1 total cpu time :    60.3 secs   av.it.:   3.0
      thresh= 1.000E-02 alpha_mix =  0.300 |ddv_scf|^2 =  5.006E-06

      iter #   2 total cpu time :    60.5 secs   av.it.:   6.5
      thresh= 2.237E-04 alpha_mix =  0.300 |ddv_scf|^2 =  5.073E-07

      iter #   3 total cpu time :    60.8 secs   av.it.:   6.4
      thresh= 7.123E-05 alpha_mix =  0.300 |ddv_scf|^2 =  1.182E-07

      iter #   4 total cpu time :    61.1 secs   av.it.:   6.6
      thresh= 3.438E-05 alpha_mix =  0.300 |ddv_scf|^2 =  2.070E-08

      iter #   5 total cpu time :    61.3 secs   av.it.:   6.6
      thresh= 1.439E-05 alpha_mix =  0.300 |ddv_scf|^2 =  4.213E-09

      iter #   6 total cpu time :    61.6 secs   av.it.:   6.7
      thresh= 6.491E-06 alpha_mix =  0.300 |ddv_scf|^2 =  1.071E-10

      iter #   7 total cpu time :    61.8 secs   av.it.:   7.0
      thresh= 1.035E-06 alpha_mix =  0.300 |ddv_scf|^2 =  1.800E-11

      iter #   8 total cpu time :    62.1 secs   av.it.:   6.9
      thresh= 4.242E-07 alpha_mix =  0.300 |ddv_scf|^2 =  2.427E-12

      iter #   9 total cpu time :    62.4 secs   av.it.:   6.7
      thresh= 1.558E-07 alpha_mix =  0.300 |ddv_scf|^2 =  1.498E-13

      iter #  10 total cpu time :    62.6 secs   av.it.:   6.8
      thresh= 3.870E-08 alpha_mix =  0.300 |ddv_scf|^2 =  2.025E-14

      iter #  11 total cpu time :    62.9 secs   av.it.:   6.7
      thresh= 1.423E-08 alpha_mix =  0.300 |ddv_scf|^2 =  3.252E-15

      iter #  12 total cpu time :    63.2 secs   av.it.:   7.1
      thresh= 5.702E-09 alpha_mix =  0.300 |ddv_scf|^2 =  6.190E-16

     End of self-consistent calculation

     Convergence has been achieved 


     Representation #   5 mode #   5

     Self-consistent Calculation

      iter #   1 total cpu time :    63.5 secs   av.it.:   3.0
      thresh= 1.000E-02 alpha_mix =  0.300 |ddv_scf|^2 =  5.519E-06

      iter #   2 total cpu time :    63.7 secs   av.it.:   6.4
      thresh= 2.349E-04 alpha_mix =  0.300 |ddv_scf|^2 =  6.032E-07

      iter #   3 total cpu time :    64.0 secs   av.it.:   6.2
      thresh= 7.767E-05 alpha_mix =  0.300 |ddv_scf|^2 =  1.309E-07

      iter #   4 total cpu time :    64.2 secs   av.it.:   6.7
      thresh= 3.619E-05 alpha_mix =  0.300 |ddv_scf|^2 =  1.446E-08

      iter #   5 total cpu time :    64.5 secs   av.it.:   6.1
      thresh= 1.202E-05 alpha_mix =  0.300 |ddv_scf|^2 =  3.223E-09

      iter #   6 total cpu time :    64.7 secs   av.it.:   6.7
      thresh= 5.677E-06 alpha_mix =  0.300 |ddv_scf|^2 =  9.809E-11

      iter #   7 total cpu time :    65.0 secs   av.it.:   7.1
      thresh= 9.904E-07 alpha_mix =  0.300 |ddv_scf|^2 =  1.071E-11

      iter #   8 total cpu time :    65.3 secs   av.it.:   6.9
      thresh= 3.272E-07 alpha_mix =  0.300 |ddv_scf|^2 =  1.934E-12

      iter #   9 total cpu time :    65.5 secs   av.it.:   6.8
      thresh= 1.391E-07 alpha_mix =  0.300 |ddv_scf|^2 =  8.598E-14

      iter #  10 total cpu time :    65.8 secs   av.it.:   6.8
      thresh= 2.932E-08 alpha_mix =  0.300 |ddv_scf|^2 =  1.440E-14

      iter #  11 total cpu time :    66.0 secs   av.it.:   6.9
      thresh= 1.200E-08 alpha_mix =  0.300 |ddv_scf|^2 =  1.815E-15

      iter #  12 total cpu time :    66.3 secs   av.it.:   6.8
      thresh= 4.260E-09 alpha_mix =  0.300 |ddv_scf|^2 =  5.277E-16

     End of self-consistent calculation

     Convergence has been achieved 


     Representation #   6 mode #   6

     Self-consistent Calculation

      iter #   1 total cpu time :    66.5 secs   av.it.:   2.5
      thresh= 1.000E-02 alpha_mix =  0.300 |ddv_scf|^2 =  6.188E-06

      iter #   2 total cpu time :    66.7 secs   av.it.:   6.0
      thresh= 2.488E-04 alpha_mix =  0.300 |ddv_scf|^2 =  5.275E-07

      iter #   3 total cpu time :    67.0 secs   av.it.:   5.9
      thresh= 7.263E-05 alpha_mix =  0.300 |ddv_scf|^2 =  2.005E-08

      iter #   4 total cpu time :    67.2 secs   av.it.:   6.1
      thresh= 1.416E-05 alpha_mix =  0.300 |ddv_scf|^2 =  6.233E-09

      iter #   5 total cpu time :    67.5 secs   av.it.:   6.4
      thresh= 7.895E-06 alpha_mix =  0.300 |ddv_scf|^2 =  5.553E-10

      iter #   6 total cpu time :    67.8 secs   av.it.:   6.5
      thresh= 2.356E-06 alpha_mix =  0.300 |ddv_scf|^2 =  3.678E-12

      iter #   7 total cpu time :    68.0 secs   av.it.:   6.7
      thresh= 1.918E-07 alpha_mix =  0.300 |ddv_scf|^2 =  1.516E-12

      iter #   8 total cpu time :    68.3 secs   av.it.:   7.0
      thresh= 1.231E-07 alpha_mix =  0.300 |ddv_scf|^2 =  6.430E-14

      iter #   9 total cpu time :    68.5 secs   av.it.:   7.0
      thresh= 2.536E-08 alpha_mix =  0.300 |ddv_scf|^2 =  3.301E-15

      iter #  10 total cpu time :    68.8 secs   av.it.:   6.5
      thresh= 5.746E-09 alpha_mix =  0.300 |ddv_scf|^2 =  4.942E-16

     End of self-consistent calculation

     Convergence has been achieved 


     Representation #   7 mode #   7

     Self-consistent Calculation

      iter #   1 total cpu time :    69.1 secs   av.it.:   3.0
      thresh= 1.000E-02 alpha_mix =  0.300 |ddv_scf|^2 =  7.054E-06

      iter #   2 total cpu time :    69.4 secs   av.it.:   6.1
      thresh= 2.656E-04 alpha_mix =  0.300 |ddv_scf|^2 =  5.716E-07

      iter #   3 total cpu time :    69.6 secs   av.it.:   6.3
      thresh= 7.561E-05 alpha_mix =  0.300 |ddv_scf|^2 =  1.277E-07

      iter #   4 total cpu time :    70.0 secs   av.it.:   6.5
      thresh= 3.573E-05 alpha_mix =  0.300 |ddv_scf|^2 =  1.961E-08

      iter #   5 total cpu time :    70.4 secs   av.it.:   6.5
      thresh= 1.400E-05 alpha_mix =  0.300 |ddv_scf|^2 =  4.057E-09

      iter #   6 total cpu time :    70.6 secs   av.it.:   6.8
      thresh= 6.369E-06 alpha_mix =  0.300 |ddv_scf|^2 =  1.805E-10

      iter #   7 total cpu time :    70.9 secs   av.it.:   7.2
      thresh= 1.344E-06 alpha_mix =  0.300 |ddv_scf|^2 =  1.475E-11

      iter #   8 total cpu time :    71.2 secs   av.it.:   6.8
      thresh= 3.840E-07 alpha_mix =  0.300 |ddv_scf|^2 =  3.497E-12

      iter #   9 total cpu time :    71.5 secs   av.it.:   6.7
      thresh= 1.870E-07 alpha_mix =  0.300 |ddv_scf|^2 =  4.199E-14

      iter #  10 total cpu time :    71.8 secs   av.it.:   6.9
      thresh= 2.049E-08 alpha_mix =  0.300 |ddv_scf|^2 =  1.094E-14

      iter #  11 total cpu time :    72.0 secs   av.it.:   6.7
      thresh= 1.046E-08 alpha_mix =  0.300 |ddv_scf|^2 =  1.933E-15

      iter #  12 total cpu time :    72.3 secs   av.it.:   7.3
      thresh= 4.396E-09 alpha_mix =  0.300 |ddv_scf|^2 =  1.803E-16

     End of self-consistent calculation

     Convergence has been achieved 


     Representation #   8 mode #   8

     Self-consistent Calculation

      iter #   1 total cpu time :    72.6 secs   av.it.:   2.0
      thresh= 1.000E-02 alpha_mix =  0.300 |ddv_scf|^2 =  8.164E-07

      iter #   2 total cpu time :    72.9 secs   av.it.:   6.5
      thresh= 9.036E-05 alpha_mix =  0.300 |ddv_scf|^2 =  8.693E-08

      iter #   3 total cpu time :    73.1 secs   av.it.:   5.8
      thresh= 2.948E-05 alpha_mix =  0.300 |ddv_scf|^2 =  1.905E-08

      iter #   4 total cpu time :    73.4 secs   av.it.:   5.9
      thresh= 1.380E-05 alpha_mix =  0.300 |ddv_scf|^2 =  4.187E-09

      iter #   5 total cpu time :    73.6 secs   av.it.:   6.3
      thresh= 6.471E-06 alpha_mix =  0.300 |ddv_scf|^2 =  1.055E-10

      iter #   6 total cpu time :    73.9 secs   av.it.:   7.1
      thresh= 1.027E-06 alpha_mix =  0.300 |ddv_scf|^2 =  4.635E-12

      iter #   7 total cpu time :    74.1 secs   av.it.:   6.4
      thresh= 2.153E-07 alpha_mix =  0.300 |ddv_scf|^2 =  1.637E-12

      iter #   8 total cpu time :    74.4 secs   av.it.:   7.0
      thresh= 1.279E-07 alpha_mix =  0.300 |ddv_scf|^2 =  1.089E-13

      iter #   9 total cpu time :    74.6 secs   av.it.:   7.0
      thresh= 3.300E-08 alpha_mix =  0.300 |ddv_scf|^2 =  3.208E-15

      iter #  10 total cpu time :    74.9 secs   av.it.:   7.1
      thresh= 5.664E-09 alpha_mix =  0.300 |ddv_scf|^2 =  5.990E-16

     End of self-consistent calculation

     Convergence has been achieved 


     Representation #   9 mode #   9

     Self-consistent Calculation

      iter #   1 total cpu time :    75.1 secs   av.it.:   3.1
      thresh= 1.000E-02 alpha_mix =  0.300 |ddv_scf|^2 =  3.366E-05

      iter #   2 total cpu time :    75.4 secs   av.it.:   5.6
      thresh= 5.802E-04 alpha_mix =  0.300 |ddv_scf|^2 =  2.217E-06

      iter #   3 total cpu time :    75.6 secs   av.it.:   6.0
      thresh= 1.489E-04 alpha_mix =  0.300 |ddv_scf|^2 =  1.109E-07

      iter #   4 total cpu time :    75.8 secs   av.it.:   6.1
      thresh= 3.330E-05 alpha_mix =  0.300 |ddv_scf|^2 =  2.871E-08

      iter #   5 total cpu time :    76.1 secs   av.it.:   6.5
      thresh= 1.694E-05 alpha_mix =  0.300 |ddv_scf|^2 =  4.074E-09

      iter #   6 total cpu time :    76.3 secs   av.it.:   6.8
      thresh= 6.383E-06 alpha_mix =  0.300 |ddv_scf|^2 =  1.243E-10

      iter #   7 total cpu time :    76.6 secs   av.it.:   6.6
      thresh= 1.115E-06 alpha_mix =  0.300 |ddv_scf|^2 =  3.811E-11

      iter #   8 total cpu time :    76.8 secs   av.it.:   6.7
      thresh= 6.173E-07 alpha_mix =  0.300 |ddv_scf|^2 =  2.795E-12

      iter #   9 total cpu time :    77.1 secs   av.it.:   6.9
      thresh= 1.672E-07 alpha_mix =  0.300 |ddv_scf|^2 =  8.900E-14

      iter #  10 total cpu time :    77.3 secs   av.it.:   6.6
      thresh= 2.983E-08 alpha_mix =  0.300 |ddv_scf|^2 =  1.868E-14

      iter #  11 total cpu time :    77.6 secs   av.it.:   6.9
      thresh= 1.367E-08 alpha_mix =  0.300 |ddv_scf|^2 =  3.734E-15

      iter #  12 total cpu time :    77.8 secs   av.it.:   7.1
      thresh= 6.110E-09 alpha_mix =  0.300 |ddv_scf|^2 =  6.029E-16

     End of self-consistent calculation

     Convergence has been achieved 
 
     Number of q in the star =   24
     List of q in the star:
          1   0.125000000   0.505181486   0.145452854
          2   0.375000000   0.360843918   0.145452854
          3   0.125000000   0.505181486  -0.145452854
          4   0.375000000   0.360843918  -0.145452854
          5  -0.375000000   0.360843918   0.145452854
          6   0.500000000   0.144337567   0.145452854
          7  -0.500000000  -0.144337567   0.145452854
          8   0.375000000  -0.360843918   0.145452854
          9  -0.375000000  -0.360843918  -0.145452854
         10   0.500000000  -0.144337567  -0.145452854
         11  -0.500000000   0.144337567  -0.145452854
         12  -0.125000000   0.505181486  -0.145452854
         13  -0.125000000  -0.505181486  -0.145452854
         14   0.125000000  -0.505181486  -0.145452854
         15   0.125000000  -0.505181486   0.145452854
         16  -0.125000000   0.505181486   0.145452854
         17   0.375000000  -0.360843918  -0.145452854
         18  -0.500000000  -0.144337567  -0.145452854
         19   0.500000000   0.144337567  -0.145452854
         20  -0.375000000   0.360843918  -0.145452854
         21  -0.125000000  -0.505181486   0.145452854
         22  -0.500000000   0.144337567   0.145452854
         23   0.500000000  -0.144337567   0.145452854
         24  -0.375000000  -0.360843918   0.145452854

     Diagonalizing the dynamical matrix

     q = (    0.125000000   0.505181486   0.145452854 ) 

 **************************************************************************
     freq (    1) =       7.824251 [THz] =     260.988919 [cm-1]
     freq (    2) =       7.930728 [THz] =     264.540624 [cm-1]
     freq (    3) =       9.574471 [THz] =     319.369975 [cm-1]
     freq (    4) =      13.282183 [THz] =     443.045941 [cm-1]
     freq (    5) =      15.133766 [THz] =     504.808085 [cm-1]
     freq (    6) =      16.560190 [THz] =     552.388479 [cm-1]
     freq (    7) =      20.892465 [THz] =     696.897633 [cm-1]
     freq (    8) =      22.307933 [THz] =     744.112563 [cm-1]
     freq (    9) =      23.366125 [THz] =     779.410022 [cm-1]
 **************************************************************************

     Calculation of q =    0.1250000   0.5051815  -0.4363586
     [opt_tetra]  Optimized tetrahedron method is used.
 
     G-vector sticks info
     --------------------
     sticks:   dense  smooth     PW     G-vecs:    dense   smooth      PW
     Sum         649     313    121                15395     5449    1347
 
     Using Slab Decomposition
 

     Title: 
     Phonon                                                                     


     bravais-lattice index     =            0
     lattice parameter (alat)  =       5.8042  a.u.
     unit-cell volume          =     194.0373 (a.u.)^3
     number of atoms/cell      =            3
     number of atomic types    =            2
     number of electrons       =         8.00
     number of Kohn-Sham states=            8
     kinetic-energy cutoff     =      35.0000  Ry
     charge density cutoff     =     280.0000  Ry
     Exchange-correlation= PBE
                           (   1   4   3   4   0   0   0)

     celldm(1)=   5.804205  celldm(2)=   0.000000  celldm(3)=   0.000000
     celldm(4)=   0.000000  celldm(5)=   0.000000  celldm(6)=   0.000000

     crystal axes: (cart. coord. in units of alat)
               a(1) = (   1.000000   0.000000   0.000000 )  
               a(2) = (  -0.500000   0.866025   0.000000 )  
               a(3) = (   0.000000   0.000000   1.145847 )  

     reciprocal axes: (cart. coord. in units 2 pi/alat)
               b(1) = (  1.000000  0.577350  0.000000 )  
               b(2) = (  0.000000  1.154701  0.000000 )  
               b(3) = (  0.000000  0.000000  0.872717 )  


     PseudoPot. # 1 for B  read from file:
     ./B.pbe-n-kjpaw_psl.0.1.upf
     MD5 check sum: b4345a612e0782cca08559f453f3313f
     Pseudo is Projector augmented-wave + core cor, Zval =  3.0
     Generated using "atomic" code by A. Dal Corso  v.5.0.99 svn rev. 10869
     Shape of augmentation charge: BESSEL
     Using radial grid of 1059 points,  4 beta functions with: 
                l(1) =   0
                l(2) =   0
                l(3) =   1
                l(4) =   1
     Q(r) pseudized with 0 coefficients 


     PseudoPot. # 2 for Mg read from file:
     ./Mg.pbe-n-kjpaw_psl.0.3.0.upf
     MD5 check sum: 9eaefceb6cf3903db1b93e4e5c6adf9a
     Pseudo is Projector augmented-wave + core cor, Zval =  2.0
     Generated using "atomic" code by A. Dal Corso  v.5.0.99 svn rev. 10869
     Shape of augmentation charge: PSQ
     Using radial grid of 1129 points,  4 beta functions with: 
                l(1) =   0
                l(2) =   0
                l(3) =   1
                l(4) =   1
     Q(r) pseudized with 0 coefficients 


     atomic species   valence    mass     pseudopotential
     B                 3.00    10.81100     B ( 1.00)
     Mg                2.00    24.30500     Mg( 1.00)

     24 Sym. Ops., with inversion, found



   Cartesian axes

     site n.     atom                  positions (alat units)
         1        Mg     tau(   1) = (   0.0000000   0.0000000   0.0000000  )
         2        B      tau(   2) = (  -0.0000000   0.5773503   0.5729233  )
         3        B      tau(   3) = (   0.5000000   0.2886751   0.5729233  )

     number of k points=   512 (tetrahedron method)

     Number of k-points >= 100: set verbosity='high' to print them.

     Dense  grid:    15395 G-vectors     FFT dimensions: (  32,  32,  36)

     Smooth grid:     5449 G-vectors     FFT dimensions: (  24,  24,  25)

     Estimated max dynamical RAM per process >       7.90 MB

     Estimated total dynamical RAM >     505.65 MB

     Check: negative core charge=   -0.000006

     The potential is recalculated from file :
     ./_ph0/pwscf.q_4/pwscf.save/charge-density

     Starting wfcs are   12 atomic wfcs
     Checking if some PAW data can be deallocated... 

     Band Structure Calculation
     Davidson diagonalization with overlap

     ethr =  1.25E-10,  avg # of iterations = 20.0

     total cpu time spent up to now is        2.0 secs

     End of band structure calculation

     Number of k-points >= 100: set verbosity='high' to print the bands.

     the Fermi energy is     7.6604 ev
 
     [dfpt_tetra]  Dos(E_F)[/Ry] :   0.8845642E+01

     Phonon                                                                     

     bravais-lattice index     =            0
     lattice parameter (alat)  =       5.8042  a.u.
     unit-cell volume          =     194.0373 (a.u.)^3
     number of atoms/cell      =            3
     number of atomic types    =            2
     kinetic-energy cut-off    =      35.0000  Ry
     charge density cut-off    =     280.0000  Ry
     convergence threshold     =      1.0E-15
     beta                      =       0.3000
[...]
      thresh= 1.000E-02 alpha_mix =  0.300 |ddv_scf|^2 =  9.554E-07

      iter #   2 total cpu time :   279.9 secs   av.it.:   5.5
      thresh= 9.774E-05 alpha_mix =  0.300 |ddv_scf|^2 =  2.833E-07

      iter #   3 total cpu time :   280.2 secs   av.it.:   5.7
      thresh= 5.322E-05 alpha_mix =  0.300 |ddv_scf|^2 =  1.572E-08

      iter #   4 total cpu time :   280.4 secs   av.it.:   5.5
      thresh= 1.254E-05 alpha_mix =  0.300 |ddv_scf|^2 =  1.954E-10

      iter #   5 total cpu time :   280.6 secs   av.it.:   5.5
      thresh= 1.398E-06 alpha_mix =  0.300 |ddv_scf|^2 =  6.734E-11

      iter #   6 total cpu time :   280.8 secs   av.it.:   5.1
      thresh= 8.206E-07 alpha_mix =  0.300 |ddv_scf|^2 =  6.406E-14

      iter #   7 total cpu time :   281.1 secs   av.it.:   6.6
      thresh= 2.531E-08 alpha_mix =  0.300 |ddv_scf|^2 =  9.238E-15

      iter #   8 total cpu time :   281.3 secs   av.it.:   6.3
      thresh= 9.611E-09 alpha_mix =  0.300 |ddv_scf|^2 =  9.774E-17

     End of self-consistent calculation

     Convergence has been achieved 


     Representation #   2 mode #   2

     Self-consistent Calculation

      iter #   1 total cpu time :   281.5 secs   av.it.:   2.3
      thresh= 1.000E-02 alpha_mix =  0.300 |ddv_scf|^2 =  2.860E-06

      iter #   2 total cpu time :   281.7 secs   av.it.:   5.5
      thresh= 1.691E-04 alpha_mix =  0.300 |ddv_scf|^2 =  1.580E-07

      iter #   3 total cpu time :   281.9 secs   av.it.:   5.5
      thresh= 3.975E-05 alpha_mix =  0.300 |ddv_scf|^2 =  1.864E-08

      iter #   4 total cpu time :   282.1 secs   av.it.:   5.4
      thresh= 1.365E-05 alpha_mix =  0.300 |ddv_scf|^2 =  4.337E-09

      iter #   5 total cpu time :   282.3 secs   av.it.:   5.8
      thresh= 6.585E-06 alpha_mix =  0.300 |ddv_scf|^2 =  1.146E-10

      iter #   6 total cpu time :   282.6 secs   av.it.:   6.3
      thresh= 1.070E-06 alpha_mix =  0.300 |ddv_scf|^2 =  2.238E-12

      iter #   7 total cpu time :   282.8 secs   av.it.:   5.6
      thresh= 1.496E-07 alpha_mix =  0.300 |ddv_scf|^2 =  9.903E-13

      iter #   8 total cpu time :   283.0 secs   av.it.:   5.8
      thresh= 9.951E-08 alpha_mix =  0.300 |ddv_scf|^2 =  2.499E-14

      iter #   9 total cpu time :   283.2 secs   av.it.:   6.0
      thresh= 1.581E-08 alpha_mix =  0.300 |ddv_scf|^2 =  1.815E-15

      iter #  10 total cpu time :   283.4 secs   av.it.:   6.2
      thresh= 4.261E-09 alpha_mix =  0.300 |ddv_scf|^2 =  4.618E-16

     End of self-consistent calculation

     Convergence has been achieved 


     Representation #   3 mode #   3

     Self-consistent Calculation

      iter #   1 total cpu time :   283.7 secs   av.it.:   3.0
      thresh= 1.000E-02 alpha_mix =  0.300 |ddv_scf|^2 =  2.081E-05

      iter #   2 total cpu time :   283.9 secs   av.it.:   5.4
      thresh= 4.562E-04 alpha_mix =  0.300 |ddv_scf|^2 =  9.892E-07

      iter #   3 total cpu time :   284.1 secs   av.it.:   5.7
      thresh= 9.946E-05 alpha_mix =  0.300 |ddv_scf|^2 =  1.025E-07

      iter #   4 total cpu time :   284.3 secs   av.it.:   5.5
      thresh= 3.201E-05 alpha_mix =  0.300 |ddv_scf|^2 =  2.215E-08

      iter #   5 total cpu time :   284.5 secs   av.it.:   6.0
      thresh= 1.488E-05 alpha_mix =  0.300 |ddv_scf|^2 =  1.650E-09

      iter #   6 total cpu time :   284.7 secs   av.it.:   6.1
      thresh= 4.062E-06 alpha_mix =  0.300 |ddv_scf|^2 =  4.612E-11

      iter #   7 total cpu time :   285.0 secs   av.it.:   4.9
      thresh= 6.791E-07 alpha_mix =  0.300 |ddv_scf|^2 =  2.040E-11

      iter #   8 total cpu time :   285.2 secs   av.it.:   5.4
      thresh= 4.516E-07 alpha_mix =  0.300 |ddv_scf|^2 =  1.040E-13

      iter #   9 total cpu time :   285.4 secs   av.it.:   6.4
      thresh= 3.224E-08 alpha_mix =  0.300 |ddv_scf|^2 =  3.454E-14

      iter #  10 total cpu time :   285.6 secs   av.it.:   6.0
      thresh= 1.858E-08 alpha_mix =  0.300 |ddv_scf|^2 =  2.483E-15

      iter #  11 total cpu time :   285.8 secs   av.it.:   5.9
      thresh= 4.983E-09 alpha_mix =  0.300 |ddv_scf|^2 =  6.909E-16

     End of self-consistent calculation

     Convergence has been achieved 


     Representation #   4 mode #   4

     Self-consistent Calculation

      iter #   1 total cpu time :   286.1 secs   av.it.:   2.9
      thresh= 1.000E-02 alpha_mix =  0.300 |ddv_scf|^2 =  1.024E-05

      iter #   2 total cpu time :   286.3 secs   av.it.:   5.4
      thresh= 3.200E-04 alpha_mix =  0.300 |ddv_scf|^2 =  4.964E-07

      iter #   3 total cpu time :   286.5 secs   av.it.:   5.8
      thresh= 7.045E-05 alpha_mix =  0.300 |ddv_scf|^2 =  6.030E-08

      iter #   4 total cpu time :   286.8 secs   av.it.:   6.0
      thresh= 2.456E-05 alpha_mix =  0.300 |ddv_scf|^2 =  4.790E-09

      iter #   5 total cpu time :   287.1 secs   av.it.:   6.2
      thresh= 6.921E-06 alpha_mix =  0.300 |ddv_scf|^2 =  8.111E-11

      iter #   6 total cpu time :   287.3 secs   av.it.:   6.1
      thresh= 9.006E-07 alpha_mix =  0.300 |ddv_scf|^2 =  1.753E-11

      iter #   7 total cpu time :   287.6 secs   av.it.:   5.9
      thresh= 4.187E-07 alpha_mix =  0.300 |ddv_scf|^2 =  2.173E-13

      iter #   8 total cpu time :   287.8 secs   av.it.:   6.0
      thresh= 4.661E-08 alpha_mix =  0.300 |ddv_scf|^2 =  8.372E-14

      iter #   9 total cpu time :   288.0 secs   av.it.:   6.1
      thresh= 2.893E-08 alpha_mix =  0.300 |ddv_scf|^2 =  1.949E-16

     End of self-consistent calculation

     Convergence has been achieved 


     Representation #   5 mode #   5

     Self-consistent Calculation

      iter #   1 total cpu time :   288.3 secs   av.it.:   2.9
      thresh= 1.000E-02 alpha_mix =  0.300 |ddv_scf|^2 =  1.024E-05

      iter #   2 total cpu time :   288.5 secs   av.it.:   5.4
      thresh= 3.200E-04 alpha_mix =  0.300 |ddv_scf|^2 =  4.964E-07

      iter #   3 total cpu time :   288.7 secs   av.it.:   5.8
      thresh= 7.045E-05 alpha_mix =  0.300 |ddv_scf|^2 =  6.030E-08

      iter #   4 total cpu time :   288.9 secs   av.it.:   6.0
      thresh= 2.456E-05 alpha_mix =  0.300 |ddv_scf|^2 =  4.790E-09

      iter #   5 total cpu time :   289.1 secs   av.it.:   6.2
      thresh= 6.921E-06 alpha_mix =  0.300 |ddv_scf|^2 =  8.111E-11

      iter #   6 total cpu time :   289.4 secs   av.it.:   6.1
      thresh= 9.006E-07 alpha_mix =  0.300 |ddv_scf|^2 =  1.753E-11

      iter #   7 total cpu time :   289.6 secs   av.it.:   5.9
      thresh= 4.187E-07 alpha_mix =  0.300 |ddv_scf|^2 =  2.173E-13

      iter #   8 total cpu time :   289.8 secs   av.it.:   6.0
      thresh= 4.661E-08 alpha_mix =  0.300 |ddv_scf|^2 =  8.372E-14

      iter #   9 total cpu time :   290.0 secs   av.it.:   6.1
      thresh= 2.893E-08 alpha_mix =  0.300 |ddv_scf|^2 =  1.949E-16

     End of self-consistent calculation

     Convergence has been achieved 


     Representation #   6 mode #   6

     Self-consistent Calculation

      iter #   1 total cpu time :   290.2 secs   av.it.:   3.0
      thresh= 1.000E-02 alpha_mix =  0.300 |ddv_scf|^2 =  2.081E-05

      iter #   2 total cpu time :   290.4 secs   av.it.:   5.4
      thresh= 4.562E-04 alpha_mix =  0.300 |ddv_scf|^2 =  9.892E-07

      iter #   3 total cpu time :   290.7 secs   av.it.:   5.7
      thresh= 9.946E-05 alpha_mix =  0.300 |ddv_scf|^2 =  1.025E-07

      iter #   4 total cpu time :   290.9 secs   av.it.:   5.5
      thresh= 3.201E-05 alpha_mix =  0.300 |ddv_scf|^2 =  2.215E-08

      iter #   5 total cpu time :   291.1 secs   av.it.:   6.0
      thresh= 1.488E-05 alpha_mix =  0.300 |ddv_scf|^2 =  1.650E-09

      iter #   6 total cpu time :   291.3 secs   av.it.:   6.1
      thresh= 4.062E-06 alpha_mix =  0.300 |ddv_scf|^2 =  4.612E-11

      iter #   7 total cpu time :   291.5 secs   av.it.:   4.9
      thresh= 6.791E-07 alpha_mix =  0.300 |ddv_scf|^2 =  2.040E-11

      iter #   8 total cpu time :   291.8 secs   av.it.:   5.4
      thresh= 4.516E-07 alpha_mix =  0.300 |ddv_scf|^2 =  1.040E-13

      iter #   9 total cpu time :   292.0 secs   av.it.:   6.4
      thresh= 3.224E-08 alpha_mix =  0.300 |ddv_scf|^2 =  3.454E-14

      iter #  10 total cpu time :   292.2 secs   av.it.:   6.0
      thresh= 1.858E-08 alpha_mix =  0.300 |ddv_scf|^2 =  2.483E-15

      iter #  11 total cpu time :   292.4 secs   av.it.:   5.9
      thresh= 4.983E-09 alpha_mix =  0.300 |ddv_scf|^2 =  6.909E-16

     End of self-consistent calculation

     Convergence has been achieved 


     Representation #   7 mode #   7

     Self-consistent Calculation

      iter #   1 total cpu time :   292.6 secs   av.it.:   1.9
      thresh= 1.000E-02 alpha_mix =  0.300 |ddv_scf|^2 =  6.909E-08

      iter #   2 total cpu time :   292.8 secs   av.it.:   5.3
      thresh= 2.628E-05 alpha_mix =  0.300 |ddv_scf|^2 =  3.381E-08

      iter #   3 total cpu time :   293.0 secs   av.it.:   5.3
      thresh= 1.839E-05 alpha_mix =  0.300 |ddv_scf|^2 =  4.935E-11

      iter #   4 total cpu time :   293.3 secs   av.it.:   5.8
      thresh= 7.025E-07 alpha_mix =  0.300 |ddv_scf|^2 =  1.697E-11

      iter #   5 total cpu time :   293.5 secs   av.it.:   5.5
      thresh= 4.119E-07 alpha_mix =  0.300 |ddv_scf|^2 =  9.756E-14

      iter #   6 total cpu time :   293.7 secs   av.it.:   6.0
      thresh= 3.123E-08 alpha_mix =  0.300 |ddv_scf|^2 =  1.873E-15

      iter #   7 total cpu time :   293.9 secs   av.it.:   5.8
      thresh= 4.328E-09 alpha_mix =  0.300 |ddv_scf|^2 =  4.422E-16

     End of self-consistent calculation

     Convergence has been achieved 


     Representation #   8 mode #   8

     Self-consistent Calculation

      iter #   1 total cpu time :   294.1 secs   av.it.:   2.2
      thresh= 1.000E-02 alpha_mix =  0.300 |ddv_scf|^2 =  1.410E-06

      iter #   2 total cpu time :   294.3 secs   av.it.:   5.4
      thresh= 1.187E-04 alpha_mix =  0.300 |ddv_scf|^2 =  6.577E-08

      iter #   3 total cpu time :   294.5 secs   av.it.:   5.6
      thresh= 2.565E-05 alpha_mix =  0.300 |ddv_scf|^2 =  1.348E-08

      iter #   4 total cpu time :   294.8 secs   av.it.:   5.7
      thresh= 1.161E-05 alpha_mix =  0.300 |ddv_scf|^2 =  5.240E-10

      iter #   5 total cpu time :   295.0 secs   av.it.:   6.1
      thresh= 2.289E-06 alpha_mix =  0.300 |ddv_scf|^2 =  3.182E-11

      iter #   6 total cpu time :   295.2 secs   av.it.:   5.7
      thresh= 5.641E-07 alpha_mix =  0.300 |ddv_scf|^2 =  1.662E-12

      iter #   7 total cpu time :   295.4 secs   av.it.:   6.2
      thresh= 1.289E-07 alpha_mix =  0.300 |ddv_scf|^2 =  1.071E-14

      iter #   8 total cpu time :   295.6 secs   av.it.:   5.6
      thresh= 1.035E-08 alpha_mix =  0.300 |ddv_scf|^2 =  4.392E-15

      iter #   9 total cpu time :   295.9 secs   av.it.:   6.0
      thresh= 6.627E-09 alpha_mix =  0.300 |ddv_scf|^2 =  1.484E-17

     End of self-consistent calculation

     Convergence has been achieved 


     Representation #   9 mode #   9

     Self-consistent Calculation

      iter #   1 total cpu time :   296.1 secs   av.it.:   2.8
      thresh= 1.000E-02 alpha_mix =  0.300 |ddv_scf|^2 =  9.554E-07

      iter #   2 total cpu time :   296.3 secs   av.it.:   5.5
      thresh= 9.774E-05 alpha_mix =  0.300 |ddv_scf|^2 =  2.833E-07

      iter #   3 total cpu time :   296.5 secs   av.it.:   5.7
      thresh= 5.322E-05 alpha_mix =  0.300 |ddv_scf|^2 =  1.572E-08

      iter #   4 total cpu time :   296.7 secs   av.it.:   5.5
      thresh= 1.254E-05 alpha_mix =  0.300 |ddv_scf|^2 =  1.954E-10

      iter #   5 total cpu time :   296.9 secs   av.it.:   5.5
      thresh= 1.398E-06 alpha_mix =  0.300 |ddv_scf|^2 =  6.734E-11

      iter #   6 total cpu time :   297.1 secs   av.it.:   5.1
      thresh= 8.206E-07 alpha_mix =  0.300 |ddv_scf|^2 =  6.406E-14

      iter #   7 total cpu time :   297.4 secs   av.it.:   6.6
      thresh= 2.531E-08 alpha_mix =  0.300 |ddv_scf|^2 =  9.238E-15

      iter #   8 total cpu time :   297.6 secs   av.it.:   6.3
      thresh= 9.611E-09 alpha_mix =  0.300 |ddv_scf|^2 =  9.774E-17

     End of self-consistent calculation

     Convergence has been achieved 
 
     Number of q in the star =    6
     List of q in the star:
          1   0.375000000  -0.216506351  -0.436358562
          2   0.375000000   0.216506351  -0.436358562
          3   0.000000000  -0.433012702  -0.436358562
          4   0.000000000   0.433012702  -0.436358562
          5  -0.375000000  -0.216506351  -0.436358562
          6  -0.375000000   0.216506351  -0.436358562

     Diagonalizing the dynamical matrix

     q = (    0.375000000  -0.216506351  -0.436358562 ) 

 **************************************************************************
     freq (    1) =       7.633697 [THz] =     254.632715 [cm-1]
     freq (    2) =       8.266913 [THz] =     275.754524 [cm-1]
     freq (    3) =       8.778711 [THz] =     292.826288 [cm-1]
     freq (    4) =      13.271604 [THz] =     442.693063 [cm-1]
     freq (    5) =      13.886192 [THz] =     463.193518 [cm-1]
     freq (    6) =      17.940569 [THz] =     598.432981 [cm-1]
     freq (    7) =      19.626894 [THz] =     654.682719 [cm-1]
     freq (    8) =      22.268295 [THz] =     742.790361 [cm-1]
     freq (    9) =      24.057928 [THz] =     802.486092 [cm-1]
 **************************************************************************
 
     init_run     :      1.27s CPU      1.46s WALL (      12 calls)
     electrons    :      3.21s CPU      3.37s WALL (      12 calls)

     Called by init_run:
     wfcinit      :      0.00s CPU      0.03s WALL (      12 calls)
     potinit      :      0.77s CPU      0.93s WALL (      12 calls)
     hinit0       :      0.34s CPU      0.34s WALL (      12 calls)

     Called by electrons:
     c_bands      :      3.12s CPU      3.28s WALL (      12 calls)
     v_of_rho     :      0.16s CPU      0.16s WALL (      13 calls)
     newd         :      0.02s CPU      0.02s WALL (      13 calls)
     PAW_pot      :      0.35s CPU      0.35s WALL (      13 calls)

     Called by c_bands:
     init_us_2    :      1.22s CPU      1.31s WALL (    5887 calls)
     cegterg      :      1.98s CPU      2.02s WALL (     116 calls)

     Called by *egterg:
     cdiaghg      :      0.25s CPU      0.26s WALL (    1765 calls)
     h_psi        :     23.93s CPU     24.73s WALL (   51285 calls)
     s_psi        :      2.33s CPU      2.40s WALL (  105424 calls)
     g_psi        :      0.02s CPU      0.02s WALL (    1669 calls)

     Called by h_psi:
     h_psi:calbec :      1.41s CPU      1.45s WALL (   51285 calls)
     vloc_psi     :     20.84s CPU     21.55s WALL (   51285 calls)
     add_vuspsi   :      1.18s CPU      1.21s WALL (   51285 calls)

     General routines
     calbec       :      2.68s CPU      2.78s WALL (  112991 calls)
     fft          :      4.40s CPU      4.42s WALL (   20960 calls)
     ffts         :      0.25s CPU      0.26s WALL (    3952 calls)
     fftw         :     19.74s CPU     20.50s WALL (  543484 calls)
     interpolate  :      1.32s CPU      1.32s WALL (    2440 calls)
     davcio       :      0.06s CPU      0.13s WALL (     216 calls)
 
     Parallel routines
 
     PHONON       :   4m46.86s CPU   4m57.68s WALL

     INITIALIZATION: 
     phq_setup    :      0.60s CPU      0.73s WALL (      12 calls)
     phq_init     :     17.01s CPU     17.20s WALL (      12 calls)
 
     phq_init     :     17.01s CPU     17.20s WALL (      12 calls)
     set_drhoc    :      0.06s CPU      0.07s WALL (      36 calls)
     init_vloc    :      0.04s CPU      0.04s WALL (      13 calls)
     init_us_1    :      0.15s CPU      0.15s WALL (      13 calls)
     init_us_2    :      1.22s CPU      1.31s WALL (    5887 calls)
     newd         :      0.02s CPU      0.02s WALL (      13 calls)
     dvanqq       :      6.66s CPU      6.69s WALL (      12 calls)
     drho         :      9.84s CPU      9.91s WALL (      12 calls)
     drhous       :      0.33s CPU      0.38s WALL (      12 calls)
     nldyntot     :      0.01s CPU      0.01s WALL (      12 calls)
 
     DYNAMICAL MATRIX:
     dynmat0      :      0.40s CPU      0.46s WALL (      12 calls)
     dynmat_us    :      0.16s CPU      0.16s WALL (      12 calls)
     addusdynmat  :      0.00s CPU      0.00s WALL (      12 calls)
     d2ionq       :      0.02s CPU      0.02s WALL (      12 calls)
     dynmatcc     :      0.21s CPU      0.21s WALL (      12 calls)
     phqscf       :    263.75s CPU    272.24s WALL (      12 calls)
     dynmatrix    :      0.02s CPU      0.07s WALL (      12 calls)
 
     phqscf       :    263.75s CPU    272.24s WALL (      12 calls)
     solve_linter :    263.16s CPU    270.78s WALL (     108 calls)
     sth_kernel   :     52.85s CPU     54.57s WALL (    1154 calls)
     h_prec       :      0.10s CPU      0.10s WALL (    4735 calls)
     apply_dpot_b :      3.70s CPU      3.96s WALL (    4303 calls)
     ortho        :      0.61s CPU      0.66s WALL (    4735 calls)
     cgsolve      :     30.11s CPU     31.14s WALL (    4735 calls)
     incdrhoscf   :      4.57s CPU      4.73s WALL (    4735 calls)
                                        0.00s GPU  (    4735 calls)
     addusddens   :     78.91s CPU     78.93s WALL (    1262 calls)
     dv_of_drho   :     14.18s CPU     14.22s WALL (    1154 calls)
     mix_pot      :      3.32s CPU      3.33s WALL (    1154 calls)
     drhodv       :      0.45s CPU      0.46s WALL (     108 calls)
     psymdvscf    :      2.73s CPU      2.73s WALL (     928 calls)
     newdq        :     73.61s CPU     73.62s WALL (    1154 calls)
     adddvscf     :      0.35s CPU      0.38s WALL (    4303 calls)
     com_dvloc    :      0.14s CPU      0.15s WALL (    1512 calls)
                                        0.00s GPU  (    1512 calls)
     addcore      :      1.29s CPU      1.31s WALL (    2234 calls)
                                        0.00s GPU  (    2234 calls)
     drhodvus     :      0.25s CPU      0.31s WALL (     108 calls)
 
     dvqpsi_us    :      0.52s CPU      0.58s WALL (     432 calls)
                                        0.00s GPU  (     432 calls)
     dvqpsi_us_on :      0.12s CPU      0.13s WALL (     432 calls)
 
     add_vuspsi   :      1.18s CPU      1.21s WALL (   51285 calls)
     addusdbec    :      0.31s CPU      0.32s WALL (    5167 calls)
 
     drhodvus     :      0.25s CPU      0.31s WALL (     108 calls)
 
      General routines
     calbec       :      2.68s CPU      2.78s WALL (  112991 calls)
     fft          :      4.40s CPU      4.42s WALL (   20960 calls)
     ffts         :      0.25s CPU      0.26s WALL (    3952 calls)
     fftw         :     19.74s CPU     20.50s WALL (  543484 calls)
     davcio       :      0.06s CPU      0.13s WALL (     216 calls)
     write_rec    :      4.29s CPU     10.09s WALL (    1262 calls)
 
      Additional routines
     ch_psi       :     28.88s CPU     29.85s WALL (   49404 calls)
     last         :      4.35s CPU      4.48s WALL (   49404 calls)
     Hesh         :      0.27s CPU      0.28s WALL (   49404 calls)
     ch_psi_all_k :      3.82s CPU      3.94s WALL (   49404 calls)
                                        0.00s GPU  (   49404 calls)
     ch_psi_calbe :      1.04s CPU      1.07s WALL (   49404 calls)
                                        0.00s GPU  (   49404 calls)
     h_psi_bgrp   :     24.02s CPU     24.82s WALL (   51285 calls)
     h_psi        :     23.93s CPU     24.73s WALL (   51285 calls)
     h_psi:pot    :     23.63s CPU     24.41s WALL (   51285 calls)
     h_psi:calbec :      1.41s CPU      1.45s WALL (   51285 calls)
     s_psi_bgrp   :      2.81s CPU      2.90s WALL (  105424 calls)
     s_psi        :      2.33s CPU      2.40s WALL (  105424 calls)
 
 
     PHONON       :   4m46.86s CPU   4m57.68s WALL

 
   This run was terminated on:   3: 5:40  13Mar2026            

=------------------------------------------------------------------------------=
   JOB DONE.
=------------------------------------------------------------------------------=
