--------------------------------------------------------------------------
Open MPI's OFI driver detected multiple equidistant NICs from the current process,
but had insufficient information to ensure MPI processes fairly pick a NIC for use.
This may negatively impact performance. A more modern PMIx server is necessary to
resolve this issue.

Note: This message is displayed only when the OFI component's verbosity level is
124205232 or higher.
--------------------------------------------------------------------------
--------------------------------------------------------------------------
WARNING: There was an error initializing an OpenFabrics device.

  Local host:   macloud2
  Local device: mlx4_0
--------------------------------------------------------------------------

     Program PROJWFC v.6.7GPU starts on 28Jun2022 at  1:56:50 

     This program is part of the open-source Quantum ESPRESSO suite
     for quantum simulation of materials; please cite
         "P. Giannozzi et al., J. Phys.:Condens. Matter 21 395502 (2009);
         "P. Giannozzi et al., J. Phys.:Condens. Matter 29 465901 (2017);
         "P. Giannozzi et al., J. Chem. Phys. 152 154105 (2020);
          URL http://www.quantum-espresso.org", 
     in publications or presentations arising from this work. More details at
     http://www.quantum-espresso.org/quote

     Parallel version (MPI & OpenMP), running on      24 processor cores
     Number of MPI processes:                24
     Threads/MPI process:                     1

     MPI processes distributed on     1 nodes
     K-points division:     npool     =      24

     Reading xml data from directory:

     ./pwscf.save/
     file B.pbe-n-kjpaw_psl.0.1.upf: wavefunction(s)  2P renormalized
     file Mg.pbe-n-kjpaw_psl.0.3.0.upf: wavefunction(s)  3S renormalized

     IMPORTANT: XC functional enforced from input :
     Exchange-correlation= PBE
                           (   1   4   3   4   0   0   0)
     Any further DFT definition will be discarded
     Please, verify this is what you really want


     G-vector sticks info
     --------------------
     sticks:   dense  smooth     PW     G-vecs:    dense   smooth      PW
     Sum         649     313    109                15395     5449    1011

     Using Slab Decomposition


     Check: negative core charge=   -0.000006

     Optimized tetrahedron method (read from file) 
     [opt_tetra]  Optimized tetrahedron method is used.

     Calling projwave .... 

     Subspace diagonalization in iterative solution of the eigenvalue problem:
     a serial algorithm will be used


  Problem Sizes 
  natomwfc =           12
  nbnd     =           15
  nkstot   =          210
  npwx     =          709
  nkb      =           24

At line 106 of file init_us_2_base.f90
Fortran runtime warning: An array temporary was created
At line 106 of file init_us_2_base.f90
Fortran runtime warning: An array temporary was created
At line 106 of file init_us_2_base.f90
Fortran runtime warning: An array temporary was created
At line 106 of file init_us_2_base.f90
Fortran runtime warning: An array temporary was created
At line 106 of file init_us_2_base.f90
Fortran runtime warning: An array temporary was created
At line 106 of file init_us_2_base.f90
Fortran runtime warning: An array temporary was created
At line 106 of file init_us_2_base.f90
Fortran runtime warning: An array temporary was created
At line 106 of file init_us_2_base.f90
Fortran runtime warning: An array temporary was created
At line 106 of file init_us_2_base.f90
Fortran runtime warning: An array temporary was created
At line 106 of file init_us_2_base.f90
Fortran runtime warning: An array temporary was created
At line 106 of file init_us_2_base.f90
Fortran runtime warning: An array temporary was created
At line 106 of file init_us_2_base.f90
Fortran runtime warning: An array temporary was created
At line 106 of file init_us_2_base.f90
Fortran runtime warning: An array temporary was created
At line 106 of file init_us_2_base.f90
Fortran runtime warning: An array temporary was created
At line 106 of file init_us_2_base.f90
Fortran runtime warning: An array temporary was created
At line 106 of file init_us_2_base.f90
Fortran runtime warning: An array temporary was created
At line 106 of file init_us_2_base.f90
Fortran runtime warning: An array temporary was created
At line 106 of file init_us_2_base.f90
Fortran runtime warning: An array temporary was created
At line 106 of file init_us_2_base.f90
Fortran runtime warning: An array temporary was created
At line 106 of file init_us_2_base.f90
Fortran runtime warning: An array temporary was created
At line 106 of file init_us_2_base.f90
Fortran runtime warning: An array temporary was created
At line 106 of file init_us_2_base.f90
Fortran runtime warning: An array temporary was created
At line 106 of file init_us_2_base.f90
Fortran runtime warning: An array temporary was created
At line 106 of file init_us_2_base.f90
Fortran runtime warning: An array temporary was created

     Atomic states used for projection
     (read from pseudopotential files):

     state #   1: atom   1 (Mg ), wfc  1 (l=0 m= 1)
     state #   2: atom   1 (Mg ), wfc  2 (l=1 m= 1)
     state #   3: atom   1 (Mg ), wfc  2 (l=1 m= 2)
     state #   4: atom   1 (Mg ), wfc  2 (l=1 m= 3)
     state #   5: atom   2 (B  ), wfc  1 (l=0 m= 1)
     state #   6: atom   2 (B  ), wfc  2 (l=1 m= 1)
     state #   7: atom   2 (B  ), wfc  2 (l=1 m= 2)
     state #   8: atom   2 (B  ), wfc  2 (l=1 m= 3)
     state #   9: atom   3 (B  ), wfc  1 (l=0 m= 1)
     state #  10: atom   3 (B  ), wfc  2 (l=1 m= 1)
     state #  11: atom   3 (B  ), wfc  2 (l=1 m= 2)
     state #  12: atom   3 (B  ), wfc  2 (l=1 m= 3)

 k =   0.0000000000  0.0000000000  0.0000000000
==== e(   1) =    -4.78562 eV ==== 
     psi = 0.412*[#   1]+0.294*[#   5]+0.294*[#   9]
    |psi|^2 = 1.000
==== e(   2) =     4.71690 eV ==== 
     psi = 0.447*[#   6]+0.447*[#  10]+0.106*[#   2]
    |psi|^2 = 0.999
==== e(   3) =     8.08586 eV ==== 
     psi = 0.248*[#   7]+0.248*[#   8]+0.248*[#  11]+0.248*[#  12]
    |psi|^2 = 0.992
==== e(   4) =     8.08586 eV ==== 
     psi = 0.248*[#   7]+0.248*[#   8]+0.248*[#  11]+0.248*[#  12]
    |psi|^2 = 0.992
==== e(   5) =     9.31820 eV ==== 
     psi = 0.503*[#   1]+0.177*[#   5]+0.177*[#   9]
    |psi|^2 = 0.858
==== e(   6) =    14.08101 eV ==== 
     psi = 0.191*[#   7]+0.191*[#   8]+0.191*[#  11]+0.191*[#  12]+0.098*[#   3]
          +0.098*[#   4]
    |psi|^2 = 0.959
==== e(   7) =    14.08101 eV ==== 
     psi = 0.191*[#   7]+0.191*[#   8]+0.191*[#  11]+0.191*[#  12]+0.098*[#   3]
          +0.098*[#   4]
    |psi|^2 = 0.959
==== e(   8) =    15.94131 eV ==== 
     psi = 0.446*[#   5]+0.446*[#   9]
    |psi|^2 = 0.892
==== e(   9) =    17.75430 eV ==== 
     psi = 0.495*[#   6]+0.495*[#  10]
    |psi|^2 = 0.990
==== e(  10) =    20.47957 eV ==== 
     psi = 0.085*[#   1]+0.028*[#   5]+0.028*[#   9]
    |psi|^2 = 0.140
==== e(  11) =    23.93081 eV ==== 
     psi = 0.001*[#   7]+0.001*[#   8]+0.001*[#  11]+0.001*[#  12]
    |psi|^2 = 0.006
==== e(  12) =    23.93081 eV ==== 
     psi = 0.001*[#   7]+0.001*[#   8]+0.001*[#  11]+0.001*[#  12]
    |psi|^2 = 0.006
==== e(  13) =    26.61616 eV ==== 

    |psi|^2 = 0.000
==== e(  14) =    26.61616 eV ==== 

    |psi|^2 = 0.000
==== e(  15) =    26.78070 eV ==== 
     psi = 0.809*[#   2]+0.049*[#   6]+0.049*[#  10]
    |psi|^2 = 0.907

 k =   0.0000000000  0.0000000000  0.0727264270
==== e(   1) =    -4.72546 eV ==== 
     psi = 0.357*[#   1]+0.280*[#   5]+0.280*[#   9]+0.072*[#   2]+0.005*[#   6]
          +0.005*[#  10]
    |psi|^2 = 1.000
==== e(   2) =     4.22938 eV ==== 
     psi = 0.419*[#   6]+0.419*[#  10]+0.081*[#   2]+0.043*[#   1]+0.017*[#   5]
          +0.017*[#   9]
    |psi|^2 = 0.997
==== e(   3) =     8.10966 eV ==== 
     psi = 0.248*[#   7]+0.248*[#   8]+0.248*[#  11]+0.248*[#  12]
    |psi|^2 = 0.992
==== e(   4) =     8.10966 eV ==== 
     psi = 0.248*[#   7]+0.248*[#   8]+0.248*[#  11]+0.248*[#  12]
    |psi|^2 = 0.992
==== e(   5) =     9.94620 eV ==== 
     psi = 0.447*[#   1]+0.161*[#   5]+0.161*[#   9]+0.031*[#   2]+0.028*[#   6]
          +0.028*[#  10]
    |psi|^2 = 0.855
==== e(   6) =    14.10098 eV ==== 
     psi = 0.192*[#   7]+0.192*[#   8]+0.192*[#  11]+0.192*[#  12]+0.094*[#   3]
          +0.094*[#   4]
    |psi|^2 = 0.957
==== e(   7) =    14.10098 eV ==== 
     psi = 0.192*[#   7]+0.192*[#   8]+0.192*[#  11]+0.192*[#  12]+0.094*[#   3]
          +0.094*[#   4]
    |psi|^2 = 0.957
==== e(   8) =    15.92844 eV ==== 
     psi = 0.411*[#   5]+0.411*[#   9]+0.037*[#   6]+0.037*[#  10]
    |psi|^2 = 0.895
==== e(   9) =    17.75547 eV ==== 
     psi = 0.456*[#   6]+0.456*[#  10]+0.039*[#   5]+0.039*[#   9]
    |psi|^2 = 0.989
==== e(  10) =    20.53706 eV ==== 
     psi = 0.058*[#   1]+0.043*[#   2]+0.034*[#   5]+0.034*[#   9]
    |psi|^2 = 0.170
==== e(  11) =    23.34244 eV ==== 
     psi = 0.001*[#   7]+0.001*[#   8]+0.001*[#  11]+0.001*[#  12]
    |psi|^2 = 0.005
==== e(  12) =    23.34244 eV ==== 
     psi = 0.001*[#   7]+0.001*[#   8]+0.001*[#  11]+0.001*[#  12]
    |psi|^2 = 0.005
==== e(  13) =    25.70772 eV ==== 
     psi = 0.135*[#   3]+0.135*[#   4]+0.013*[#   7]+0.013*[#   8]+0.013*[#  11]
          +0.013*[#  12]
    |psi|^2 = 0.321
==== e(  14) =    25.70772 eV ==== 
     psi = 0.135*[#   3]+0.135*[#   4]+0.013*[#   7]+0.013*[#   8]+0.013*[#  11]
          +0.013*[#  12]
    |psi|^2 = 0.321
==== e(  15) =    26.65384 eV ==== 
     psi = 0.682*[#   2]+0.085*[#   1]+0.044*[#   6]+0.044*[#  10]+0.006*[#   5]
          +0.006*[#   9]
    |psi|^2 = 0.866

 k =   0.0000000000  0.0000000000  0.1454528540
==== e(   1) =    -4.54968 eV ==== 
     psi = 0.252*[#   5]+0.252*[#   9]+0.245*[#   1]+0.223*[#   2]+0.014*[#   6]
          +0.014*[#  10]
    |psi|^2 = 1.000
==== e(   2) =     3.21223 eV ==== 
     psi = 0.388*[#   6]+0.388*[#  10]+0.094*[#   1]+0.057*[#   2]+0.035*[#   5]
          +0.035*[#   9]
    |psi|^2 = 0.996
==== e(   3) =     8.17411 eV ==== 
     psi = 0.248*[#   7]+0.248*[#   8]+0.248*[#  11]+0.248*[#  12]
    |psi|^2 = 0.993
==== e(   4) =     8.17411 eV ==== 
     psi = 0.248*[#   7]+0.248*[#   8]+0.248*[#  11]+0.248*[#  12]
    |psi|^2 = 0.993
==== e(   5) =    11.38285 eV ==== 
     psi = 0.402*[#   1]+0.134*[#   5]+0.134*[#   9]+0.058*[#   6]+0.058*[#  10]
          +0.053*[#   2]
    |psi|^2 = 0.838
==== e(   6) =    14.15623 eV ==== 
     psi = 0.197*[#   7]+0.197*[#   8]+0.197*[#  11]+0.197*[#  12]+0.082*[#   3]
          +0.082*[#   4]
    |psi|^2 = 0.952
==== e(   7) =    14.15623 eV ==== 
     psi = 0.197*[#   7]+0.197*[#   8]+0.197*[#  11]+0.197*[#  12]+0.082*[#   3]
          +0.082*[#   4]
    |psi|^2 = 0.952
==== e(   8) =    15.89360 eV ==== 
     psi = 0.319*[#   5]+0.319*[#   9]+0.133*[#   6]+0.133*[#  10]
    |psi|^2 = 0.903
==== e(   9) =    17.75403 eV ==== 
     psi = 0.354*[#   6]+0.354*[#  10]+0.140*[#   5]+0.140*[#   9]
    |psi|^2 = 0.988
==== e(  10) =    20.70363 eV ==== 
     psi = 0.132*[#   2]+0.056*[#   5]+0.056*[#   9]+0.019*[#   1]
    |psi|^2 = 0.263
==== e(  11) =    22.26899 eV ==== 

    |psi|^2 = 0.004
==== e(  12) =    22.26899 eV ==== 

    |psi|^2 = 0.004
==== e(  13) =    24.61212 eV ==== 
     psi = 0.188*[#   3]+0.188*[#   4]+0.013*[#   7]+0.013*[#   8]+0.013*[#  11]
          +0.013*[#  12]
    |psi|^2 = 0.427
==== e(  14) =    24.61212 eV ==== 
     psi = 0.188*[#   3]+0.188*[#   4]+0.013*[#   7]+0.013*[#   8]+0.013*[#  11]
          +0.013*[#  12]
    |psi|^2 = 0.427
==== e(  15) =    26.29557 eV ==== 
     psi = 0.461*[#   2]+0.214*[#   1]+0.036*[#   6]+0.036*[#  10]+0.019*[#   5]
          +0.019*[#   9]
    |psi|^2 = 0.785

 k =   0.0000000000  0.0000000000  0.2181792811
==== e(   1) =    -4.27516 eV ==== 
     psi = 0.369*[#   2]+0.225*[#   5]+0.225*[#   9]+0.143*[#   1]+0.019*[#   6]
          +0.019*[#  10]
    |psi|^2 = 1.000
==== e(   2) =     2.12872 eV ==== 
     psi = 0.377*[#   6]+0.377*[#  10]+0.128*[#   1]+0.045*[#   2]+0.035*[#   5]
          +0.035*[#   9]
    |psi|^2 = 0.997
==== e(   3) =     8.26564 eV ==== 
     psi = 0.249*[#   7]+0.249*[#   8]+0.249*[#  11]+0.249*[#  12]
    |psi|^2 = 0.994
==== e(   4) =     8.26564 eV ==== 
     psi = 0.249*[#   7]+0.249*[#   8]+0.249*[#  11]+0.249*[#  12]
    |psi|^2 = 0.994
==== e(   5) =    13.15852 eV ==== 
     psi = 0.429*[#   1]+0.100*[#   5]+0.100*[#   9]+0.072*[#   6]+0.072*[#  10]
          +0.042*[#   2]
    |psi|^2 = 0.814
==== e(   6) =    14.23562 eV ==== 
     psi = 0.204*[#   7]+0.204*[#   8]+0.204*[#  11]+0.204*[#  12]+0.063*[#   3]
          +0.063*[#   4]
    |psi|^2 = 0.941
==== e(   7) =    14.23562 eV ==== 
     psi = 0.204*[#   7]+0.204*[#   8]+0.204*[#  11]+0.204*[#  12]+0.063*[#   3]
          +0.063*[#   4]
    |psi|^2 = 0.941
==== e(   8) =    15.84790 eV ==== 
     psi = 0.254*[#   6]+0.254*[#  10]+0.203*[#   5]+0.203*[#   9]
    |psi|^2 = 0.915
==== e(   9) =    17.75078 eV ==== 
     psi = 0.266*[#   5]+0.266*[#   9]+0.226*[#   6]+0.226*[#  10]
    |psi|^2 = 0.985
==== e(  10) =    20.95921 eV ==== 
     psi = 0.211*[#   2]+0.098*[#   5]+0.098*[#   9]+0.003*[#   1]
    |psi|^2 = 0.410
==== e(  11) =    21.25875 eV ==== 

    |psi|^2 = 0.003
==== e(  12) =    21.25875 eV ==== 

    |psi|^2 = 0.003
==== e(  13) =    23.69307 eV ==== 
     psi = 0.247*[#   3]+0.247*[#   4]+0.010*[#   7]+0.010*[#   8]+0.010*[#  11]
          +0.010*[#  12]
    |psi|^2 = 0.534
==== e(  14) =    23.69307 eV ==== 
     psi = 0.247*[#   3]+0.247*[#   4]+0.010*[#   7]+0.010*[#   8]+0.010*[#  11]
          +0.010*[#  12]
    |psi|^2 = 0.534
==== e(  15) =    25.76511 eV ==== 
     psi = 0.290*[#   2]+0.274*[#   1]+0.035*[#   5]+0.035*[#   9]+0.029*[#   6]
          +0.029*[#  10]
    |psi|^2 = 0.693

 k =   0.0000000000  0.0000000000  0.2909057081
==== e(   1) =    -3.94132 eV ==== 
     psi = 0.482*[#   2]+0.207*[#   5]+0.207*[#   9]+0.069*[#   1]+0.017*[#   6]
          +0.017*[#  10]
    |psi|^2 = 1.000
==== e(   2) =     1.17249 eV ==== 
     psi = 0.381*[#   6]+0.381*[#  10]+0.156*[#   1]+0.033*[#   2]+0.023*[#   5]
          +0.023*[#   9]
    |psi|^2 = 0.998
==== e(   3) =     8.36052 eV ==== 
     psi = 0.249*[#   7]+0.249*[#   8]+0.249*[#  11]+0.249*[#  12]
    |psi|^2 = 0.996
==== e(   4) =     8.36052 eV ==== 
     psi = 0.249*[#   7]+0.249*[#   8]+0.249*[#  11]+0.249*[#  12]
    |psi|^2 = 0.996
==== e(   5) =    14.31975 eV ==== 
     psi = 0.212*[#   7]+0.212*[#   8]+0.212*[#  11]+0.212*[#  12]+0.037*[#   3]
          +0.037*[#   4]
    |psi|^2 = 0.924
==== e(   6) =    14.31975 eV ==== 
     psi = 0.212*[#   7]+0.212*[#   8]+0.212*[#  11]+0.212*[#  12]+0.037*[#   3]
          +0.037*[#   4]
    |psi|^2 = 0.924
==== e(   7) =    15.05315 eV ==== 
     psi = 0.503*[#   1]+0.076*[#   6]+0.076*[#  10]+0.059*[#   5]+0.059*[#   9]
          +0.024*[#   2]
    |psi|^2 = 0.798
==== e(   8) =    15.80030 eV ==== 
     psi = 0.366*[#   6]+0.366*[#  10]+0.097*[#   5]+0.097*[#   9]
    |psi|^2 = 0.926
==== e(   9) =    17.74441 eV ==== 
     psi = 0.383*[#   5]+0.383*[#   9]+0.108*[#   6]+0.108*[#  10]
    |psi|^2 = 0.982
==== e(  10) =    20.47093 eV ==== 

    |psi|^2 = 0.002
==== e(  11) =    20.47093 eV ==== 

    |psi|^2 = 0.002
==== e(  12) =    21.26121 eV ==== 
     psi = 0.268*[#   2]+0.156*[#   5]+0.156*[#   9]
    |psi|^2 = 0.579
==== e(  13) =    22.99988 eV ==== 
     psi = 0.328*[#   3]+0.328*[#   4]+0.006*[#   7]+0.006*[#   8]+0.006*[#  11]
          +0.006*[#  12]
    |psi|^2 = 0.680
==== e(  14) =    22.99988 eV ==== 
     psi = 0.328*[#   3]+0.328*[#   4]+0.006*[#   7]+0.006*[#   8]+0.006*[#  11]
          +0.006*[#  12]
    |psi|^2 = 0.680
==== e(  15) =    25.09834 eV ==== 
     psi = 0.261*[#   1]+0.177*[#   2]+0.047*[#   5]+0.047*[#   9]+0.024*[#   6]
          +0.024*[#  10]
    |psi|^2 = 0.582

 k =   0.0000000000  0.0000000000  0.3636321351
==== e(   1) =    -3.63403 eV ==== 
     psi = 0.560*[#   2]+0.202*[#   5]+0.202*[#   9]+0.020*[#   1]+0.007*[#   6]
          +0.007*[#  10]
    |psi|^2 = 1.000
==== e(   2) =     0.47975 eV ==== 
     psi = 0.394*[#   6]+0.394*[#  10]+0.181*[#   1]+0.013*[#   2]+0.008*[#   5]
          +0.008*[#   9]
    |psi|^2 = 0.999
==== e(   3) =     8.43331 eV ==== 
     psi = 0.249*[#   7]+0.249*[#   8]+0.249*[#  11]+0.249*[#  12]
    |psi|^2 = 0.997
==== e(   4) =     8.43331 eV ==== 
     psi = 0.249*[#   7]+0.249*[#   8]+0.249*[#  11]+0.249*[#  12]
    |psi|^2 = 0.997
==== e(   5) =    14.38450 eV ==== 
     psi = 0.220*[#   7]+0.220*[#   8]+0.220*[#  11]+0.220*[#  12]+0.012*[#   3]
          +0.012*[#   4]
    |psi|^2 = 0.904
==== e(   6) =    14.38450 eV ==== 
     psi = 0.220*[#   7]+0.220*[#   8]+0.220*[#  11]+0.220*[#  12]+0.012*[#   3]
          +0.012*[#   4]
    |psi|^2 = 0.904
==== e(   7) =    15.76714 eV ==== 
     psi = 0.442*[#   6]+0.442*[#  10]+0.025*[#   5]+0.025*[#   9]
    |psi|^2 = 0.935
==== e(   8) =    16.79945 eV ==== 
     psi = 0.605*[#   1]+0.080*[#   6]+0.080*[#  10]+0.021*[#   5]+0.021*[#   9]
          +0.008*[#   2]
    |psi|^2 = 0.816
==== e(   9) =    17.74095 eV ==== 
     psi = 0.462*[#   5]+0.462*[#   9]+0.028*[#   6]+0.028*[#  10]
    |psi|^2 = 0.980
==== e(  10) =    19.97339 eV ==== 

    |psi|^2 = 0.000
==== e(  11) =    19.97339 eV ==== 

    |psi|^2 = 0.000
==== e(  12) =    21.52736 eV ==== 
     psi = 0.309*[#   2]+0.213*[#   5]+0.213*[#   9]
    |psi|^2 = 0.735
==== e(  13) =    22.56673 eV ==== 
     psi = 0.412*[#   3]+0.412*[#   4]+0.002*[#   7]+0.002*[#   8]+0.002*[#  11]
          +0.002*[#  12]
    |psi|^2 = 0.831
==== e(  14) =    22.56673 eV ==== 
     psi = 0.412*[#   3]+0.412*[#   4]+0.002*[#   7]+0.002*[#   8]+0.002*[#  11]
          +0.002*[#  12]
    |psi|^2 = 0.831
==== e(  15) =    24.17014 eV ==== 
     psi = 0.131*[#   1]+0.101*[#   2]+0.051*[#   5]+0.051*[#   9]+0.012*[#   6]
          +0.012*[#  10]
    |psi|^2 = 0.358

 k =   0.0000000000  0.0000000000 -0.4363585621
==== e(   1) =    -3.49991 eV ==== 
     psi = 0.593*[#   2]+0.203*[#   5]+0.203*[#   9]
    |psi|^2 = 1.000
==== e(   2) =     0.21550 eV ==== 
     psi = 0.403*[#   6]+0.403*[#  10]+0.194*[#   1]
    |psi|^2 = 0.999
==== e(   3) =     8.46161 eV ==== 
     psi = 0.249*[#   7]+0.249*[#   8]+0.249*[#  11]+0.249*[#  12]
    |psi|^2 = 0.997
==== e(   4) =     8.46161 eV ==== 
     psi = 0.249*[#   7]+0.249*[#   8]+0.249*[#  11]+0.249*[#  12]
    |psi|^2 = 0.997
==== e(   5) =    14.40765 eV ==== 
     psi = 0.224*[#   7]+0.224*[#   8]+0.224*[#  11]+0.224*[#  12]
    |psi|^2 = 0.895
==== e(   6) =    14.40765 eV ==== 
     psi = 0.224*[#   7]+0.224*[#   8]+0.224*[#  11]+0.224*[#  12]
    |psi|^2 = 0.895
==== e(   7) =    15.75566 eV ==== 
     psi = 0.469*[#   6]+0.469*[#  10]
    |psi|^2 = 0.938
==== e(   8) =    17.65448 eV ==== 
     psi = 0.687*[#   1]+0.086*[#   6]+0.086*[#  10]
    |psi|^2 = 0.858
==== e(   9) =    17.73974 eV ==== 
     psi = 0.489*[#   5]+0.489*[#   9]
    |psi|^2 = 0.979
==== e(  10) =    19.80328 eV ==== 

    |psi|^2 = 0.000
==== e(  11) =    19.80328 eV ==== 

    |psi|^2 = 0.000
==== e(  12) =    21.63682 eV ==== 
     psi = 0.332*[#   2]+0.244*[#   5]+0.244*[#   9]
    |psi|^2 = 0.819
==== e(  13) =    22.41903 eV ==== 
     psi = 0.451*[#   3]+0.451*[#   4]
    |psi|^2 = 0.901
==== e(  14) =    22.41903 eV ==== 
     psi = 0.451*[#   3]+0.451*[#   4]
    |psi|^2 = 0.901
==== e(  15) =    23.48110 eV ==== 
     psi = 0.069*[#   2]+0.048*[#   5]+0.048*[#   9]
    |psi|^2 = 0.166

 k =   0.0000000000  0.0721687836  0.0000000000
==== e(   1) =    -4.71697 eV ==== 
     psi = 0.360*[#   1]+0.277*[#   5]+0.277*[#   9]+0.031*[#   3]+0.031*[#   4]
          +0.006*[#   7]+0.006*[#   8]+0.006*[#  11]+0.006*[#  12]
    |psi|^2 = 1.000
==== e(   2) =     4.78387 eV ==== 
     psi = 0.447*[#   6]+0.447*[#  10]+0.106*[#   2]
    |psi|^2 = 0.999
==== e(   3) =     7.72941 eV ==== 
     psi = 0.238*[#   7]+0.238*[#   8]+0.238*[#  11]+0.238*[#  12]+0.015*[#   5]
          +0.015*[#   9]+0.005*[#   3]+0.005*[#   4]
    |psi|^2 = 0.993
==== e(   4) =     7.91838 eV ==== 
     psi = 0.246*[#   7]+0.246*[#   8]+0.246*[#  11]+0.246*[#  12]+0.005*[#   3]
          +0.005*[#   4]
    |psi|^2 = 0.994
==== e(   5) =     9.37880 eV ==== 
     psi = 0.418*[#   1]+0.181*[#   5]+0.181*[#   9]+0.042*[#   3]+0.042*[#   4]
          +0.002*[#   7]+0.002*[#   8]+0.002*[#  11]+0.002*[#  12]
    |psi|^2 = 0.874
==== e(   6) =    14.04242 eV ==== 
     psi = 0.179*[#   7]+0.179*[#   8]+0.179*[#  11]+0.179*[#  12]+0.082*[#   3]
          +0.082*[#   4]+0.027*[#   1]+0.021*[#   5]+0.021*[#   9]
    |psi|^2 = 0.952
==== e(   7) =    14.38730 eV ==== 
     psi = 0.193*[#   7]+0.193*[#   8]+0.193*[#  11]+0.193*[#  12]+0.089*[#   3]
          +0.089*[#   4]
    |psi|^2 = 0.951
==== e(   8) =    16.08707 eV ==== 
     psi = 0.418*[#   5]+0.418*[#   9]+0.010*[#   7]+0.010*[#   8]+0.010*[#  11]
          +0.010*[#  12]+0.002*[#   3]+0.002*[#   4]
    |psi|^2 = 0.881
==== e(   9) =    17.50603 eV ==== 
     psi = 0.490*[#   6]+0.490*[#  10]
    |psi|^2 = 0.980
==== e(  10) =    20.82959 eV ==== 
     psi = 0.111*[#   1]+0.018*[#   5]+0.018*[#   9]+0.008*[#   7]+0.008*[#   8]
          +0.008*[#  11]+0.008*[#  12]+0.005*[#   3]+0.005*[#   4]
    |psi|^2 = 0.190
==== e(  11) =    23.57561 eV ==== 
     psi = 0.051*[#   3]+0.051*[#   4]+0.012*[#   5]+0.012*[#   9]+0.011*[#   1]
          +0.004*[#   7]+0.004*[#   8]+0.004*[#  11]+0.004*[#  12]
    |psi|^2 = 0.153
==== e(  12) =    23.75786 eV ==== 
     psi = 0.067*[#   3]+0.067*[#   4]+0.005*[#   7]+0.005*[#   8]+0.005*[#  11]
          +0.005*[#  12]
    |psi|^2 = 0.155
==== e(  13) =    25.09481 eV ==== 
     psi = 0.264*[#   2]+0.017*[#   6]+0.017*[#  10]
    |psi|^2 = 0.298
==== e(  14) =    25.81135 eV ==== 

    |psi|^2 = 0.000
==== e(  15) =    27.36864 eV ==== 
     psi = 0.449*[#   2]+0.029*[#   6]+0.029*[#  10]
    |psi|^2 = 0.508

 k =   0.0000000000  0.0721687836  0.0727264270
==== e(   1) =    -4.65700 eV ==== 
     psi = 0.316*[#   1]+0.266*[#   5]+0.266*[#   9]+0.064*[#   2]+0.027*[#   3]
          +0.027*[#   4]+0.006*[#   7]+0.006*[#   8]+0.006*[#  11]+0.006*[#  12]
          +0.004*[#   6]+0.004*[#  10]
    |psi|^2 = 1.000
==== e(   2) =     4.29731 eV ==== 
     psi = 0.418*[#   6]+0.418*[#  10]+0.082*[#   2]+0.039*[#   1]+0.018*[#   5]
          +0.018*[#   9]+0.002*[#   3]+0.002*[#   4]
    |psi|^2 = 0.997
==== e(   3) =     7.75429 eV ==== 
     psi = 0.238*[#   7]+0.238*[#   8]+0.238*[#  11]+0.238*[#  12]+0.014*[#   5]
          +0.014*[#   9]+0.005*[#   3]+0.005*[#   4]
    |psi|^2 = 0.993
==== e(   4) =     7.94131 eV ==== 
     psi = 0.246*[#   7]+0.246*[#   8]+0.246*[#  11]+0.246*[#  12]+0.005*[#   3]
          +0.005*[#   4]
    |psi|^2 = 0.994
==== e(   5) =    10.00385 eV ==== 
     psi = 0.371*[#   1]+0.162*[#   5]+0.162*[#   9]+0.040*[#   3]+0.040*[#   4]
          +0.029*[#   6]+0.029*[#  10]+0.028*[#   2]+0.002*[#   7]+0.002*[#   8]
          +0.002*[#  11]+0.002*[#  12]
    |psi|^2 = 0.871
==== e(   6) =    14.06765 eV ==== 
     psi = 0.180*[#   7]+0.180*[#   8]+0.180*[#  11]+0.180*[#  12]+0.079*[#   3]
          +0.079*[#   4]+0.024*[#   1]+0.023*[#   5]+0.023*[#   9]+0.002*[#   2]
          
    |psi|^2 = 0.950
==== e(   7) =    14.40780 eV ==== 
     psi = 0.194*[#   7]+0.194*[#   8]+0.194*[#  11]+0.194*[#  12]+0.086*[#   3]
          +0.086*[#   4]
    |psi|^2 = 0.949
==== e(   8) =    16.02480 eV ==== 
     psi = 0.361*[#   5]+0.361*[#   9]+0.060*[#   6]+0.060*[#  10]+0.010*[#   7]
          +0.010*[#   8]+0.010*[#  11]+0.010*[#  12]+0.002*[#   3]+0.002*[#   4]
          
    |psi|^2 = 0.884
==== e(   9) =    17.53329 eV ==== 
     psi = 0.425*[#   6]+0.425*[#  10]+0.062*[#   5]+0.062*[#   9]
    |psi|^2 = 0.977
==== e(  10) =    20.88156 eV ==== 
     psi = 0.083*[#   1]+0.043*[#   2]+0.023*[#   5]+0.023*[#   9]+0.008*[#   7]
          +0.008*[#   8]+0.008*[#  11]+0.008*[#  12]+0.007*[#   3]+0.007*[#   4]
          
    |psi|^2 = 0.219
==== e(  11) =    23.01599 eV ==== 
     psi = 0.058*[#   3]+0.058*[#   4]+0.018*[#   1]+0.009*[#   5]+0.009*[#   9]
          +0.006*[#   2]+0.006*[#   6]+0.006*[#  10]+0.004*[#   7]+0.004*[#   8]
          +0.004*[#  11]+0.004*[#  12]
    |psi|^2 = 0.185
==== e(  12) =    23.05964 eV ==== 
     psi = 0.070*[#   3]+0.070*[#   4]+0.005*[#   7]+0.005*[#   8]+0.005*[#  11]
          +0.005*[#  12]
    |psi|^2 = 0.159
==== e(  13) =    24.99485 eV ==== 
     psi = 0.207*[#   2]+0.047*[#   1]+0.014*[#   3]+0.014*[#   4]+0.013*[#   6]
          +0.013*[#  10]+0.005*[#   5]+0.005*[#   9]+0.002*[#   7]+0.002*[#   8]
          +0.002*[#  11]+0.002*[#  12]
    |psi|^2 = 0.324
==== e(  14) =    25.83933 eV ==== 
     psi = 0.042*[#   3]+0.042*[#   4]+0.005*[#   7]+0.005*[#   8]+0.005*[#  11]
          +0.005*[#  12]
    |psi|^2 = 0.104
==== e(  15) =    27.29388 eV ==== 
     psi = 0.435*[#   2]+0.081*[#   3]+0.081*[#   4]+0.028*[#   6]+0.028*[#  10]
          +0.011*[#   7]+0.011*[#   8]+0.011*[#  11]+0.011*[#  12]+0.008*[#   1]
          
    |psi|^2 = 0.705

 k =   0.0000000000  0.0721687836  0.1454528540
==== e(   1) =    -4.48186 eV ==== 
     psi = 0.244*[#   5]+0.244*[#   9]+0.223*[#   1]+0.205*[#   2]+0.020*[#   3]
          +0.020*[#   4]+0.013*[#   6]+0.013*[#  10]+0.005*[#   7]+0.005*[#   8]
          +0.005*[#  11]+0.005*[#  12]
    |psi|^2 = 1.000
==== e(   2) =     3.28230 eV ==== 
     psi = 0.386*[#   6]+0.386*[#  10]+0.087*[#   1]+0.057*[#   2]+0.035*[#   5]
          +0.035*[#   9]+0.004*[#   3]+0.004*[#   4]
    |psi|^2 = 0.996
==== e(   3) =     7.82427 eV ==== 
     psi = 0.239*[#   7]+0.239*[#   8]+0.239*[#  11]+0.239*[#  12]+0.014*[#   5]
          +0.014*[#   9]+0.004*[#   3]+0.004*[#   4]
    |psi|^2 = 0.994
==== e(   4) =     8.00464 eV ==== 
     psi = 0.246*[#   7]+0.246*[#   8]+0.246*[#  11]+0.246*[#  12]+0.004*[#   3]
          +0.004*[#   4]
    |psi|^2 = 0.994
==== e(   5) =    11.43182 eV ==== 
     psi = 0.332*[#   1]+0.130*[#   5]+0.130*[#   9]+0.060*[#   6]+0.060*[#  10]
          +0.047*[#   2]+0.040*[#   3]+0.040*[#   4]+0.004*[#   7]+0.004*[#   8]
          +0.004*[#  11]+0.004*[#  12]
    |psi|^2 = 0.856
==== e(   6) =    14.14040 eV ==== 
     psi = 0.182*[#   7]+0.182*[#   8]+0.182*[#  11]+0.182*[#  12]+0.065*[#   3]
          +0.065*[#   4]+0.028*[#   5]+0.028*[#   9]+0.022*[#   1]+0.006*[#   2]
          
    |psi|^2 = 0.945
==== e(   7) =    14.46489 eV ==== 
     psi = 0.199*[#   7]+0.199*[#   8]+0.199*[#  11]+0.199*[#  12]+0.074*[#   3]
          +0.074*[#   4]
    |psi|^2 = 0.943
==== e(   8) =    15.85982 eV ==== 
     psi = 0.240*[#   5]+0.240*[#   9]+0.186*[#   6]+0.186*[#  10]+0.008*[#   7]
          +0.008*[#   8]+0.008*[#  11]+0.008*[#  12]+0.003*[#   3]+0.003*[#   4]
          
    |psi|^2 = 0.890
==== e(   9) =    17.60645 eV ==== 
     psi = 0.285*[#   6]+0.285*[#  10]+0.195*[#   5]+0.195*[#   9]+0.002*[#   7]
          +0.002*[#   8]+0.002*[#  11]+0.002*[#  12]
    |psi|^2 = 0.970
==== e(  10) =    21.02954 eV ==== 
     psi = 0.128*[#   2]+0.039*[#   1]+0.039*[#   5]+0.039*[#   9]+0.012*[#   3]
          +0.012*[#   4]+0.010*[#   7]+0.010*[#   8]+0.010*[#  11]+0.010*[#  12]
          
    |psi|^2 = 0.308
==== e(  11) =    21.93157 eV ==== 
     psi = 0.085*[#   3]+0.085*[#   4]+0.004*[#   7]+0.004*[#   8]+0.004*[#  11]
          +0.004*[#  12]
    |psi|^2 = 0.185
==== e(  12) =    22.06521 eV ==== 
     psi = 0.074*[#   3]+0.074*[#   4]+0.026*[#   1]+0.015*[#   6]+0.015*[#  10]
          +0.008*[#   2]+0.006*[#   5]+0.006*[#   9]+0.003*[#   7]+0.003*[#   8]
          +0.003*[#  11]+0.003*[#  12]
    |psi|^2 = 0.237
==== e(  13) =    24.36680 eV ==== 
     psi = 0.105*[#   2]+0.103*[#   1]+0.053*[#   3]+0.053*[#   4]+0.011*[#   5]
          +0.011*[#   9]+0.009*[#   6]+0.009*[#  10]+0.004*[#   7]+0.004*[#   8]
          +0.004*[#  11]+0.004*[#  12]
    |psi|^2 = 0.366
==== e(  14) =    25.04288 eV ==== 
     psi = 0.111*[#   3]+0.111*[#   4]+0.009*[#   7]+0.009*[#   8]+0.009*[#  11]
          +0.009*[#  12]
    |psi|^2 = 0.259
==== e(  15) =    26.85408 eV ==== 
     psi = 0.371*[#   2]+0.088*[#   1]+0.059*[#   3]+0.059*[#   4]+0.029*[#   6]
          +0.029*[#  10]+0.007*[#   5]+0.007*[#   9]+0.007*[#   7]+0.007*[#   8]
          +0.007*[#  11]+0.007*[#  12]
    |psi|^2 = 0.677

 k =   0.0000000000  0.0721687836  0.2181792811
==== e(   1) =    -4.20842 eV ==== 
     psi = 0.347*[#   2]+0.222*[#   5]+0.222*[#   9]+0.134*[#   1]+0.018*[#   6]
          +0.018*[#  10]+0.012*[#   3]+0.012*[#   4]+0.004*[#   7]+0.004*[#   8]
          +0.004*[#  11]+0.004*[#  12]
    |psi|^2 = 1.000
==== e(   2) =     2.20113 eV ==== 
     psi = 0.374*[#   6]+0.374*[#  10]+0.121*[#   1]+0.046*[#   2]+0.035*[#   5]
          +0.035*[#   9]+0.006*[#   3]+0.006*[#   4]
    |psi|^2 = 0.997
==== e(   3) =     7.92324 eV ==== 
     psi = 0.240*[#   7]+0.240*[#   8]+0.240*[#  11]+0.240*[#  12]+0.013*[#   5]
          +0.013*[#   9]+0.003*[#   3]+0.003*[#   4]
    |psi|^2 = 0.995
==== e(   4) =     8.09418 eV ==== 
     psi = 0.247*[#   7]+0.247*[#   8]+0.247*[#  11]+0.247*[#  12]+0.003*[#   3]
          +0.003*[#   4]
    |psi|^2 = 0.995
==== e(   5) =    13.17466 eV ==== 
     psi = 0.334*[#   1]+0.082*[#   5]+0.082*[#   9]+0.072*[#   6]+0.072*[#  10]
          +0.052*[#   3]+0.052*[#   4]+0.033*[#   2]+0.014*[#   7]+0.014*[#   8]
          +0.014*[#  11]+0.014*[#  12]
    |psi|^2 = 0.834
==== e(   6) =    14.26675 eV ==== 
     psi = 0.178*[#   7]+0.178*[#   8]+0.178*[#  11]+0.178*[#  12]+0.044*[#   5]
          +0.044*[#   9]+0.041*[#   1]+0.036*[#   3]+0.036*[#   4]+0.012*[#   2]
          +0.005*[#   6]+0.005*[#  10]
    |psi|^2 = 0.935
==== e(   7) =    14.54622 eV ==== 
     psi = 0.205*[#   7]+0.205*[#   8]+0.205*[#  11]+0.205*[#  12]+0.056*[#   3]
          +0.056*[#   4]
    |psi|^2 = 0.933
==== e(   8) =    15.63886 eV ==== 
     psi = 0.303*[#   6]+0.303*[#  10]+0.127*[#   5]+0.127*[#   9]+0.005*[#   7]
          +0.005*[#   8]+0.005*[#  11]+0.005*[#  12]+0.005*[#   3]+0.005*[#   4]
          +0.001*[#   1]
    |psi|^2 = 0.892
==== e(   9) =    17.69799 eV ==== 
     psi = 0.323*[#   5]+0.323*[#   9]+0.151*[#   6]+0.151*[#  10]+0.004*[#   7]
          +0.004*[#   8]+0.004*[#  11]+0.004*[#  12]
    |psi|^2 = 0.966
==== e(  10) =    20.91654 eV ==== 
     psi = 0.109*[#   3]+0.109*[#   4]+0.003*[#   7]+0.003*[#   8]+0.003*[#  11]
          +0.003*[#  12]
    |psi|^2 = 0.230
==== e(  11) =    21.12078 eV ==== 
     psi = 0.108*[#   3]+0.108*[#   4]+0.046*[#   1]+0.045*[#   2]+0.017*[#   6]
          +0.017*[#  10]+0.012*[#   5]+0.012*[#   9]+0.009*[#   7]+0.009*[#   8]
          +0.009*[#  11]+0.009*[#  12]
    |psi|^2 = 0.403
==== e(  12) =    21.33310 eV ==== 
     psi = 0.168*[#   2]+0.065*[#   5]+0.065*[#   9]+0.008*[#   3]+0.008*[#   4]
          +0.008*[#   6]+0.008*[#  10]+0.003*[#   7]+0.003*[#   8]+0.003*[#  11]
          +0.003*[#  12]
    |psi|^2 = 0.345
==== e(  13) =    23.58807 eV ==== 
     psi = 0.121*[#   1]+0.089*[#   3]+0.089*[#   4]+0.062*[#   2]+0.016*[#   5]
          +0.016*[#   9]+0.006*[#   6]+0.006*[#  10]+0.003*[#   7]+0.003*[#   8]
          +0.003*[#  11]+0.003*[#  12]
    |psi|^2 = 0.416
==== e(  14) =    24.16463 eV ==== 
     psi = 0.154*[#   3]+0.154*[#   4]+0.008*[#   7]+0.008*[#   8]+0.008*[#  11]
          +0.008*[#  12]
    |psi|^2 = 0.339
==== e(  15) =    26.28438 eV ==== 
     psi = 0.250*[#   2]+0.156*[#   1]+0.040*[#   3]+0.040*[#   4]+0.026*[#   6]
          +0.026*[#  10]+0.021*[#   5]+0.021*[#   9]+0.004*[#   7]+0.004*[#   8]
          +0.004*[#  11]+0.004*[#  12]
    |psi|^2 = 0.596

 k =   0.0000000000  0.0721687836  0.2909057081
==== e(   1) =    -3.87623 eV ==== 
     psi = 0.461*[#   2]+0.208*[#   5]+0.208*[#   9]+0.066*[#   1]+0.016*[#   6]
          +0.016*[#  10]+0.006*[#   3]+0.006*[#   4]+0.003*[#   7]+0.003*[#   8]
          +0.003*[#  11]+0.003*[#  12]
    |psi|^2 = 1.000
==== e(   2) =     1.24739 eV ==== 
     psi = 0.377*[#   6]+0.377*[#  10]+0.149*[#   1]+0.033*[#   2]+0.024*[#   5]
          +0.024*[#   9]+0.007*[#   3]+0.007*[#   4]
    |psi|^2 = 0.999
==== e(   3) =     8.02731 eV ==== 
     psi = 0.242*[#   7]+0.242*[#   8]+0.242*[#  11]+0.242*[#  12]+0.012*[#   5]
          +0.012*[#   9]+0.002*[#   3]+0.002*[#   4]
    |psi|^2 = 0.996
==== e(   4) =     8.18750 eV ==== 
     psi = 0.248*[#   7]+0.248*[#   8]+0.248*[#  11]+0.248*[#  12]+0.002*[#   3]
          +0.002*[#   4]
    |psi|^2 = 0.996
==== e(   5) =    14.26292 eV ==== 
     psi = 0.191*[#   7]+0.191*[#   8]+0.191*[#  11]+0.191*[#  12]+0.047*[#   3]
          +0.047*[#   4]+0.012*[#   1]+0.010*[#   5]+0.010*[#   9]+0.006*[#   6]
          +0.006*[#  10]
    |psi|^2 = 0.905
==== e(   6) =    14.63315 eV ==== 
     psi = 0.213*[#   7]+0.213*[#   8]+0.213*[#  11]+0.213*[#  12]+0.032*[#   3]
          +0.032*[#   4]
    |psi|^2 = 0.917
==== e(   7) =    15.17122 eV ==== 
     psi = 0.429*[#   1]+0.077*[#   6]+0.077*[#  10]+0.076*[#   5]+0.076*[#   9]
          +0.027*[#   2]+0.019*[#   3]+0.019*[#   4]+0.008*[#   7]+0.008*[#   8]
          +0.008*[#  11]+0.008*[#  12]
    |psi|^2 = 0.832
==== e(   8) =    15.41601 eV ==== 
     psi = 0.380*[#   6]+0.380*[#  10]+0.051*[#   5]+0.051*[#   9]+0.007*[#   3]
          +0.007*[#   4]+0.003*[#   7]+0.003*[#   8]+0.003*[#  11]+0.003*[#  12]
          +0.003*[#   1]
    |psi|^2 = 0.891
==== e(   9) =    17.79095 eV ==== 
     psi = 0.412*[#   5]+0.412*[#   9]+0.060*[#   6]+0.060*[#  10]+0.005*[#   7]
          +0.005*[#   8]+0.005*[#  11]+0.005*[#  12]
    |psi|^2 = 0.967
==== e(  10) =    20.13573 eV ==== 
     psi = 0.141*[#   3]+0.141*[#   4]+0.002*[#   7]+0.002*[#   8]+0.002*[#  11]
          +0.002*[#  12]
    |psi|^2 = 0.289
==== e(  11) =    20.49745 eV ==== 
     psi = 0.146*[#   3]+0.146*[#   4]+0.040*[#   1]+0.032*[#   6]+0.032*[#  10]
          +0.003*[#   7]+0.003*[#   8]+0.003*[#  11]+0.003*[#  12]
    |psi|^2 = 0.406
==== e(  12) =    21.55658 eV ==== 
     psi = 0.263*[#   2]+0.126*[#   5]+0.126*[#   9]+0.010*[#   7]+0.010*[#   8]
          +0.010*[#  11]+0.010*[#  12]+0.006*[#   3]+0.006*[#   4]+0.002*[#   1]
          
    |psi|^2 = 0.569
==== e(  13) =    22.92797 eV ==== 
     psi = 0.124*[#   3]+0.124*[#   4]+0.121*[#   1]+0.046*[#   2]+0.022*[#   5]
          +0.022*[#   9]+0.005*[#   6]+0.005*[#  10]+0.001*[#   7]+0.001*[#   8]
          +0.001*[#  11]+0.001*[#  12]
    |psi|^2 = 0.475
==== e(  14) =    23.47348 eV ==== 
     psi = 0.201*[#   3]+0.201*[#   4]+0.005*[#   7]+0.005*[#   8]+0.005*[#  11]
          +0.005*[#  12]
    |psi|^2 = 0.421
==== e(  15) =    25.53064 eV ==== 
     psi = 0.158*[#   1]+0.152*[#   2]+0.032*[#   5]+0.032*[#   9]+0.032*[#   3]
          +0.032*[#   4]+0.021*[#   6]+0.021*[#  10]+0.002*[#   7]+0.002*[#   8]
          +0.002*[#  11]+0.002*[#  12]
    |psi|^2 = 0.487

 k =   0.0000000000  0.0721687836  0.3636321351
==== e(   1) =    -3.57089 eV ==== 
     psi = 0.542*[#   2]+0.205*[#   5]+0.205*[#   9]+0.019*[#   1]+0.007*[#   6]
          +0.007*[#  10]+0.003*[#   7]+0.003*[#   8]+0.003*[#  11]+0.003*[#  12]
          +0.002*[#   3]+0.002*[#   4]
    |psi|^2 = 1.000
==== e(   2) =     0.55708 eV ==== 
     psi = 0.388*[#   6]+0.388*[#  10]+0.174*[#   1]+0.013*[#   2]+0.009*[#   3]
          +0.009*[#   4]+0.008*[#   5]+0.008*[#   9]
    |psi|^2 = 0.999
==== e(   3) =     8.10613 eV ==== 
     psi = 0.243*[#   7]+0.243*[#   8]+0.243*[#  11]+0.243*[#  12]+0.012*[#   5]
          +0.012*[#   9]
    |psi|^2 = 0.997
==== e(   4) =     8.25853 eV ==== 
     psi = 0.249*[#   7]+0.249*[#   8]+0.249*[#  11]+0.249*[#  12]
    |psi|^2 = 0.997
==== e(   5) =    14.38289 eV ==== 
     psi = 0.206*[#   7]+0.206*[#   8]+0.206*[#  11]+0.206*[#  12]+0.023*[#   5]
          +0.023*[#   9]+0.011*[#   3]+0.011*[#   4]+0.003*[#   2]+0.001*[#   6]
          +0.001*[#  10]
    |psi|^2 = 0.900
==== e(   6) =    14.69969 eV ==== 
     psi = 0.220*[#   7]+0.220*[#   8]+0.220*[#  11]+0.220*[#  12]+0.010*[#   3]
          +0.010*[#   4]
    |psi|^2 = 0.900
==== e(   7) =    15.24894 eV ==== 
     psi = 0.421*[#   6]+0.421*[#  10]+0.012*[#   5]+0.012*[#   9]+0.009*[#   3]
          +0.009*[#   4]+0.001*[#   1]
    |psi|^2 = 0.888
==== e(   8) =    16.87069 eV ==== 
     psi = 0.543*[#   1]+0.087*[#   6]+0.087*[#  10]+0.031*[#   3]+0.031*[#   4]
          +0.025*[#   5]+0.025*[#   9]+0.009*[#   2]
    |psi|^2 = 0.836
==== e(   9) =    17.86669 eV ==== 
     psi = 0.460*[#   5]+0.460*[#   9]+0.013*[#   6]+0.013*[#  10]+0.006*[#   7]
          +0.006*[#   8]+0.006*[#  11]+0.006*[#  12]
    |psi|^2 = 0.974
==== e(  10) =    19.64483 eV ==== 
     psi = 0.171*[#   3]+0.171*[#   4]
    |psi|^2 = 0.345
==== e(  11) =    20.07267 eV ==== 
     psi = 0.176*[#   3]+0.176*[#   4]+0.035*[#   1]+0.035*[#   6]+0.035*[#  10]
          
    |psi|^2 = 0.462
==== e(  12) =    21.80565 eV ==== 
     psi = 0.309*[#   2]+0.180*[#   5]+0.180*[#   9]+0.010*[#   7]+0.010*[#   8]
          +0.010*[#  11]+0.010*[#  12]+0.009*[#   3]+0.009*[#   4]+0.001*[#   1]
          
    |psi|^2 = 0.729
==== e(  13) =    22.48703 eV ==== 
     psi = 0.160*[#   3]+0.160*[#   4]+0.106*[#   1]+0.033*[#   2]+0.021*[#   5]
          +0.021*[#   9]+0.004*[#   6]+0.004*[#  10]
    |psi|^2 = 0.509
==== e(  14) =    23.03633 eV ==== 
     psi = 0.247*[#   3]+0.247*[#   4]+0.001*[#   7]+0.001*[#   8]+0.001*[#  11]
          +0.001*[#  12]
    |psi|^2 = 0.499
==== e(  15) =    24.37097 eV ==== 
     psi = 0.078*[#   2]+0.067*[#   1]+0.035*[#   5]+0.035*[#   9]+0.017*[#   3]
          +0.017*[#   4]+0.010*[#   6]+0.010*[#  10]
    |psi|^2 = 0.271

 k =   0.0000000000  0.0721687836 -0.4363585621
==== e(   1) =    -3.43778 eV ==== 
     psi = 0.575*[#   2]+0.206*[#   5]+0.206*[#   9]+0.003*[#   7]+0.003*[#   8]
          +0.003*[#  11]+0.003*[#  12]
    |psi|^2 = 1.000
==== e(   2) =     0.29405 eV ==== 
     psi = 0.396*[#   6]+0.396*[#  10]+0.186*[#   1]+0.010*[#   3]+0.010*[#   4]
          
    |psi|^2 = 0.999
==== e(   3) =     8.13625 eV ==== 
     psi = 0.244*[#   7]+0.244*[#   8]+0.244*[#  11]+0.244*[#  12]+0.011*[#   5]
          +0.011*[#   9]
    |psi|^2 = 0.997
==== e(   4) =     8.28543 eV ==== 
     psi = 0.249*[#   7]+0.249*[#   8]+0.249*[#  11]+0.249*[#  12]
    |psi|^2 = 0.997
==== e(   5) =    14.41902 eV ==== 
     psi = 0.210*[#   7]+0.210*[#   8]+0.210*[#  11]+0.210*[#  12]+0.026*[#   5]
          +0.026*[#   9]+0.003*[#   2]
    |psi|^2 = 0.894
==== e(   6) =    14.72527 eV ==== 
     psi = 0.223*[#   7]+0.223*[#   8]+0.223*[#  11]+0.223*[#  12]
    |psi|^2 = 0.892
==== e(   7) =    15.18722 eV ==== 
     psi = 0.433*[#   6]+0.433*[#  10]+0.009*[#   3]+0.009*[#   4]+0.002*[#   1]
          
    |psi|^2 = 0.887
==== e(   8) =    17.71330 eV ==== 
     psi = 0.627*[#   1]+0.093*[#   6]+0.093*[#  10]+0.030*[#   3]+0.030*[#   4]
          
    |psi|^2 = 0.872
==== e(   9) =    17.89718 eV ==== 
     psi = 0.476*[#   5]+0.476*[#   9]+0.007*[#   7]+0.007*[#   8]+0.007*[#  11]
          +0.007*[#  12]
    |psi|^2 = 0.978
==== e(  10) =    19.47728 eV ==== 
     psi = 0.185*[#   3]+0.185*[#   4]
    |psi|^2 = 0.369
==== e(  11) =    19.92712 eV ==== 
     psi = 0.192*[#   3]+0.192*[#   4]+0.036*[#   6]+0.036*[#  10]+0.029*[#   1]
          
    |psi|^2 = 0.484
==== e(  12) =    21.91663 eV ==== 
     psi = 0.361*[#   2]+0.230*[#   5]+0.230*[#   9]+0.010*[#   7]+0.010*[#   8]
          +0.010*[#  11]+0.010*[#  12]
    |psi|^2 = 0.862
==== e(  13) =    22.33934 eV ==== 
     psi = 0.195*[#   3]+0.195*[#   4]+0.080*[#   1]+0.003*[#   6]+0.003*[#  10]
          
    |psi|^2 = 0.476
==== e(  14) =    22.88673 eV ==== 
     psi = 0.267*[#   3]+0.267*[#   4]
    |psi|^2 = 0.533
==== e(  15) =    23.57699 eV ==== 
     psi = 0.051*[#   2]+0.034*[#   5]+0.034*[#   9]
    |psi|^2 = 0.119

 k =   0.0000000000  0.1443375673  0.0000000000
==== e(   1) =    -4.51150 eV ==== 
     psi = 0.259*[#   1]+0.241*[#   5]+0.241*[#   9]+0.089*[#   3]+0.089*[#   4]
          +0.020*[#   7]+0.020*[#   8]+0.020*[#  11]+0.020*[#  12]
    |psi|^2 = 1.000
==== e(   2) =     4.98376 eV ==== 
     psi = 0.447*[#   6]+0.447*[#  10]+0.106*[#   2]
    |psi|^2 = 0.999
==== e(   3) =     6.81584 eV ==== 
     psi = 0.219*[#   7]+0.219*[#   8]+0.219*[#  11]+0.219*[#  12]+0.043*[#   5]
          +0.043*[#   9]+0.015*[#   3]+0.015*[#   4]
    |psi|^2 = 0.994
==== e(   4) =     7.50446 eV ==== 
     psi = 0.242*[#   7]+0.242*[#   8]+0.242*[#  11]+0.242*[#  12]+0.014*[#   3]
          +0.014*[#   4]
    |psi|^2 = 0.996
==== e(   5) =     9.56734 eV ==== 
     psi = 0.281*[#   1]+0.181*[#   5]+0.181*[#   9]+0.107*[#   3]+0.107*[#   4]
          +0.010*[#   7]+0.010*[#   8]+0.010*[#  11]+0.010*[#  12]
    |psi|^2 = 0.897
==== e(   6) =    13.83315 eV ==== 
     psi = 0.143*[#   7]+0.143*[#   8]+0.143*[#  11]+0.143*[#  12]+0.095*[#   5]
          +0.095*[#   9]+0.075*[#   1]+0.047*[#   3]+0.047*[#   4]
    |psi|^2 = 0.932
==== e(   7) =    15.21393 eV ==== 
     psi = 0.197*[#   7]+0.197*[#   8]+0.197*[#  11]+0.197*[#  12]+0.072*[#   3]
          +0.072*[#   4]
    |psi|^2 = 0.932
==== e(   8) =    16.51087 eV ==== 
     psi = 0.325*[#   5]+0.325*[#   9]+0.039*[#   7]+0.039*[#   8]+0.039*[#  11]
          +0.039*[#  12]+0.019*[#   1]+0.016*[#   3]+0.016*[#   4]
    |psi|^2 = 0.858
==== e(   9) =    16.80748 eV ==== 
     psi = 0.478*[#   6]+0.478*[#  10]+0.001*[#   2]
    |psi|^2 = 0.957
==== e(  10) =    21.76597 eV ==== 
     psi = 0.163*[#   1]+0.023*[#   7]+0.023*[#   8]+0.023*[#  11]+0.023*[#  12]
          +0.008*[#   3]+0.008*[#   4]+0.005*[#   5]+0.005*[#   9]
    |psi|^2 = 0.280
==== e(  11) =    22.83239 eV ==== 
     psi = 0.079*[#   3]+0.079*[#   4]+0.063*[#   1]+0.050*[#   5]+0.050*[#   9]
          +0.005*[#   7]+0.005*[#   8]+0.005*[#  11]+0.005*[#  12]
    |psi|^2 = 0.342
==== e(  12) =    23.36129 eV ==== 
     psi = 0.184*[#   3]+0.184*[#   4]+0.012*[#   7]+0.012*[#   8]+0.012*[#  11]
          +0.012*[#  12]
    |psi|^2 = 0.414
==== e(  13) =    23.65686 eV ==== 
     psi = 0.304*[#   2]+0.026*[#   6]+0.026*[#  10]
    |psi|^2 = 0.357
==== e(  14) =    24.79477 eV ==== 

    |psi|^2 = 0.000
==== e(  15) =    27.80579 eV ==== 
     psi = 0.119*[#   1]+0.117*[#   3]+0.117*[#   4]+0.022*[#   7]+0.022*[#   8]
          +0.022*[#  11]+0.022*[#  12]+0.019*[#   5]+0.019*[#   9]
    |psi|^2 = 0.479

 k =   0.0000000000  0.1443375673  0.0727264270
==== e(   1) =    -4.45212 eV ==== 
     psi = 0.236*[#   5]+0.236*[#   9]+0.234*[#   1]+0.081*[#   3]+0.081*[#   4]
          +0.048*[#   2]+0.019*[#   7]+0.019*[#   8]+0.019*[#  11]+0.019*[#  12]
          +0.003*[#   6]+0.003*[#  10]
    |psi|^2 = 1.000
==== e(   2) =     4.50024 eV ==== 
     psi = 0.416*[#   6]+0.416*[#  10]+0.083*[#   2]+0.032*[#   1]+0.018*[#   5]
          +0.018*[#   9]+0.006*[#   3]+0.006*[#   4]
    |psi|^2 = 0.997
==== e(   3) =     6.84632 eV ==== 
     psi = 0.220*[#   7]+0.220*[#   8]+0.220*[#  11]+0.220*[#  12]+0.043*[#   5]
          +0.043*[#   9]+0.014*[#   3]+0.014*[#   4]+0.001*[#   1]
    |psi|^2 = 0.994
==== e(   4) =     7.52588 eV ==== 
     psi = 0.242*[#   7]+0.242*[#   8]+0.242*[#  11]+0.242*[#  12]+0.014*[#   3]
          +0.014*[#   4]
    |psi|^2 = 0.996
==== e(   5) =    10.18375 eV ==== 
     psi = 0.248*[#   1]+0.158*[#   5]+0.158*[#   9]+0.102*[#   3]+0.102*[#   4]
          +0.031*[#   6]+0.031*[#  10]+0.022*[#   2]+0.011*[#   7]+0.011*[#   8]
          +0.011*[#  11]+0.011*[#  12]
    |psi|^2 = 0.894
==== e(   6) =    13.86973 eV ==== 
     psi = 0.142*[#   7]+0.142*[#   8]+0.142*[#  11]+0.142*[#  12]+0.100*[#   5]
          +0.100*[#   9]+0.067*[#   1]+0.043*[#   3]+0.043*[#   4]+0.007*[#   2]
          +0.002*[#   6]+0.002*[#  10]
    |psi|^2 = 0.930
==== e(   7) =    15.23580 eV ==== 
     psi = 0.198*[#   7]+0.198*[#   8]+0.198*[#  11]+0.198*[#  12]+0.069*[#   3]
          +0.069*[#   4]
    |psi|^2 = 0.930
==== e(   8) =    16.07664 eV ==== 
     psi = 0.236*[#   6]+0.236*[#  10]+0.136*[#   5]+0.136*[#   9]+0.023*[#   7]
          +0.023*[#   8]+0.023*[#  11]+0.023*[#  12]+0.018*[#   1]+0.016*[#   3]
          +0.016*[#   4]
    |psi|^2 = 0.886
==== e(   9) =    17.17505 eV ==== 
     psi = 0.231*[#   6]+0.231*[#  10]+0.198*[#   5]+0.198*[#   9]+0.017*[#   7]
          +0.017*[#   8]+0.017*[#  11]+0.017*[#  12]+0.003*[#   1]+0.003*[#   3]
          +0.003*[#   4]+0.001*[#   2]
    |psi|^2 = 0.932
==== e(  10) =    21.78209 eV ==== 
     psi = 0.172*[#   1]+0.026*[#   7]+0.026*[#   8]+0.026*[#  11]+0.026*[#  12]
          +0.022*[#   2]+0.021*[#   3]+0.021*[#   4]+0.005*[#   5]+0.005*[#   9]
          +0.001*[#   6]+0.001*[#  10]
    |psi|^2 = 0.355
==== e(  11) =    22.32430 eV ==== 
     psi = 0.068*[#   3]+0.068*[#   4]+0.064*[#   1]+0.062*[#   2]+0.033*[#   5]
          +0.033*[#   9]+0.019*[#   6]+0.019*[#  10]+0.001*[#   7]+0.001*[#   8]
          +0.001*[#  11]+0.001*[#  12]
    |psi|^2 = 0.372
==== e(  12) =    22.48110 eV ==== 
     psi = 0.165*[#   3]+0.165*[#   4]+0.009*[#   7]+0.009*[#   8]+0.009*[#  11]
          +0.009*[#  12]
    |psi|^2 = 0.365
==== e(  13) =    23.95850 eV ==== 
     psi = 0.238*[#   2]+0.015*[#   6]+0.015*[#  10]+0.015*[#   5]+0.015*[#   9]
          +0.009*[#   1]+0.005*[#   3]+0.005*[#   4]
    |psi|^2 = 0.319
==== e(  14) =    25.63805 eV ==== 
     psi = 0.009*[#   3]+0.009*[#   4]
    |psi|^2 = 0.020
==== e(  15) =    27.82812 eV ==== 
     psi = 0.119*[#   3]+0.119*[#   4]+0.068*[#   1]+0.058*[#   2]+0.021*[#   7]
          +0.021*[#   8]+0.021*[#  11]+0.021*[#  12]+0.011*[#   5]+0.011*[#   9]
          +0.005*[#   6]+0.005*[#  10]
    |psi|^2 = 0.482

 k =   0.0000000000  0.1443375673  0.1454528540
==== e(   1) =    -4.27879 eV ==== 
     psi = 0.225*[#   5]+0.225*[#   9]+0.175*[#   1]+0.163*[#   2]+0.062*[#   3]
          +0.062*[#   4]+0.017*[#   7]+0.017*[#   8]+0.017*[#  11]+0.017*[#  12]
          +0.010*[#   6]+0.010*[#  10]
    |psi|^2 = 1.000
==== e(   2) =     3.49156 eV ==== 
     psi = 0.381*[#   6]+0.381*[#  10]+0.074*[#   1]+0.058*[#   2]+0.036*[#   5]
          +0.036*[#   9]+0.013*[#   3]+0.013*[#   4]
    |psi|^2 = 0.997
==== e(   3) =     6.92791 eV ==== 
     psi = 0.221*[#   7]+0.221*[#   8]+0.221*[#  11]+0.221*[#  12]+0.042*[#   5]
          +0.042*[#   9]+0.012*[#   3]+0.012*[#   4]+0.001*[#   1]
    |psi|^2 = 0.994
==== e(   4) =     7.58630 eV ==== 
     psi = 0.243*[#   7]+0.243*[#   8]+0.243*[#  11]+0.243*[#  12]+0.012*[#   3]
          +0.012*[#   4]
    |psi|^2 = 0.996
==== e(   5) =    11.58569 eV ==== 
     psi = 0.217*[#   1]+0.114*[#   5]+0.114*[#   9]+0.102*[#   3]+0.102*[#   4]
          +0.065*[#   6]+0.065*[#  10]+0.035*[#   2]+0.015*[#   7]+0.015*[#   8]
          +0.015*[#  11]+0.015*[#  12]
    |psi|^2 = 0.877
==== e(   6) =    13.98006 eV ==== 
     psi = 0.135*[#   7]+0.135*[#   8]+0.135*[#  11]+0.135*[#  12]+0.115*[#   5]
          +0.115*[#   9]+0.057*[#   1]+0.028*[#   3]+0.028*[#   4]+0.020*[#   2]
          +0.010*[#   6]+0.010*[#  10]
    |psi|^2 = 0.926
==== e(   7) =    15.29711 eV ==== 
     psi = 0.201*[#   7]+0.201*[#   8]+0.201*[#  11]+0.201*[#  12]+0.059*[#   3]
          +0.059*[#   4]
    |psi|^2 = 0.924
==== e(   8) =    15.49408 eV ==== 
     psi = 0.308*[#   6]+0.308*[#  10]+0.061*[#   5]+0.061*[#   9]+0.024*[#   3]
          +0.024*[#   4]+0.023*[#   1]+0.020*[#   7]+0.020*[#   8]+0.020*[#  11]
          +0.020*[#  12]
    |psi|^2 = 0.888
==== e(   9) =    17.57875 eV ==== 
     psi = 0.296*[#   5]+0.296*[#   9]+0.127*[#   6]+0.127*[#  10]+0.021*[#   7]
          +0.021*[#   8]+0.021*[#  11]+0.021*[#  12]+0.002*[#   2]+0.001*[#   3]
          +0.001*[#   4]
    |psi|^2 = 0.937
==== e(  10) =    21.28939 eV ==== 
     psi = 0.191*[#   3]+0.191*[#   4]+0.008*[#   7]+0.008*[#   8]+0.008*[#  11]
          +0.008*[#  12]
    |psi|^2 = 0.412
==== e(  11) =    21.40705 eV ==== 
     psi = 0.238*[#   1]+0.117*[#   3]+0.117*[#   4]+0.034*[#   6]+0.034*[#  10]
          +0.015*[#   7]+0.015*[#   8]+0.015*[#  11]+0.015*[#  12]+0.011*[#   5]
          +0.011*[#   9]+0.001*[#   2]
    |psi|^2 = 0.624
==== e(  12) =    22.02236 eV ==== 
     psi = 0.165*[#   2]+0.026*[#   5]+0.026*[#   9]+0.014*[#   7]+0.014*[#   8]
          +0.014*[#  11]+0.014*[#  12]+0.007*[#   6]+0.007*[#  10]+0.005*[#   1]
          +0.001*[#   3]+0.001*[#   4]
    |psi|^2 = 0.294
==== e(  13) =    24.01120 eV ==== 
     psi = 0.176*[#   2]+0.056*[#   1]+0.018*[#   5]+0.018*[#   9]+0.017*[#   6]
          +0.017*[#  10]
    |psi|^2 = 0.304
==== e(  14) =    25.89384 eV ==== 
     psi = 0.021*[#   3]+0.021*[#   4]+0.004*[#   7]+0.004*[#   8]+0.004*[#  11]
          +0.004*[#  12]
    |psi|^2 = 0.057
==== e(  15) =    27.70641 eV ==== 
     psi = 0.291*[#   2]+0.076*[#   3]+0.076*[#   4]+0.023*[#   6]+0.023*[#  10]
          +0.012*[#   7]+0.012*[#   8]+0.012*[#  11]+0.012*[#  12]+0.010*[#   1]
          +0.002*[#   5]+0.002*[#   9]
    |psi|^2 = 0.552

 k =   0.0000000000  0.1443375673  0.2181792811
==== e(   1) =    -4.00865 eV ==== 
     psi = 0.292*[#   2]+0.215*[#   5]+0.215*[#   9]+0.111*[#   1]+0.040*[#   3]
          +0.040*[#   4]+0.015*[#   7]+0.015*[#   8]+0.015*[#  11]+0.015*[#  12]
          +0.015*[#   6]+0.015*[#  10]
    |psi|^2 = 1.000
==== e(   2) =     2.41744 eV ==== 
     psi = 0.366*[#   6]+0.366*[#  10]+0.106*[#   1]+0.045*[#   2]+0.037*[#   5]
          +0.037*[#   9]+0.018*[#   3]+0.018*[#   4]
    |psi|^2 = 0.998
==== e(   3) =     7.04349 eV ==== 
     psi = 0.223*[#   7]+0.223*[#   8]+0.223*[#  11]+0.223*[#  12]+0.041*[#   5]
          +0.041*[#   9]+0.009*[#   3]+0.009*[#   4]
    |psi|^2 = 0.995
==== e(   4) =     7.67184 eV ==== 
     psi = 0.245*[#   7]+0.245*[#   8]+0.245*[#  11]+0.245*[#  12]+0.009*[#   3]
          +0.009*[#   4]
    |psi|^2 = 0.997
==== e(   5) =    13.22386 eV ==== 
     psi = 0.178*[#   1]+0.115*[#   3]+0.115*[#   4]+0.072*[#   6]+0.072*[#  10]
          +0.049*[#   7]+0.049*[#   8]+0.049*[#  11]+0.049*[#  12]+0.043*[#   5]
          +0.043*[#   9]+0.014*[#   2]
    |psi|^2 = 0.846
==== e(   6) =    14.22146 eV ==== 
     psi = 0.155*[#   5]+0.155*[#   9]+0.096*[#   7]+0.096*[#   8]+0.096*[#  11]
          +0.096*[#  12]+0.096*[#   1]+0.046*[#   6]+0.046*[#  10]+0.037*[#   2]
          
    |psi|^2 = 0.920
==== e(   7) =    14.93745 eV ==== 
     psi = 0.323*[#   6]+0.323*[#  10]+0.038*[#   1]+0.034*[#   3]+0.034*[#   4]
          +0.024*[#   7]+0.024*[#   8]+0.024*[#  11]+0.024*[#  12]+0.023*[#   5]
          +0.023*[#   9]+0.003*[#   2]
    |psi|^2 = 0.896
==== e(   8) =    15.38408 eV ==== 
     psi = 0.207*[#   7]+0.207*[#   8]+0.207*[#  11]+0.207*[#  12]+0.043*[#   3]
          +0.043*[#   4]
    |psi|^2 = 0.913
==== e(   9) =    17.90758 eV ==== 
     psi = 0.362*[#   5]+0.362*[#   9]+0.061*[#   6]+0.061*[#  10]+0.024*[#   7]
          +0.024*[#   8]+0.024*[#  11]+0.024*[#  12]+0.002*[#   2]
    |psi|^2 = 0.946
==== e(  10) =    20.26791 eV ==== 
     psi = 0.237*[#   3]+0.237*[#   4]+0.006*[#   7]+0.006*[#   8]+0.006*[#  11]
          +0.006*[#  12]
    |psi|^2 = 0.499
==== e(  11) =    20.70208 eV ==== 
     psi = 0.242*[#   1]+0.160*[#   3]+0.160*[#   4]+0.053*[#   6]+0.053*[#  10]
          +0.009*[#   5]+0.009*[#   9]+0.008*[#   7]+0.008*[#   8]+0.008*[#  11]
          +0.008*[#  12]+0.003*[#   2]
    |psi|^2 = 0.721
==== e(  12) =    22.18336 eV ==== 
     psi = 0.233*[#   2]+0.046*[#   5]+0.046*[#   9]+0.023*[#   7]+0.023*[#   8]
          +0.023*[#  11]+0.023*[#  12]+0.003*[#   1]+0.003*[#   6]+0.003*[#  10]
          +0.001*[#   3]+0.001*[#   4]
    |psi|^2 = 0.427
==== e(  13) =    23.68084 eV ==== 
     psi = 0.126*[#   2]+0.091*[#   1]+0.023*[#   6]+0.023*[#  10]+0.019*[#   5]
          +0.019*[#   9]
    |psi|^2 = 0.303
==== e(  14) =    25.19412 eV ==== 
     psi = 0.058*[#   3]+0.058*[#   4]+0.005*[#   7]+0.005*[#   8]+0.005*[#  11]
          +0.005*[#  12]
    |psi|^2 = 0.135
==== e(  15) =    27.20439 eV ==== 
     psi = 0.218*[#   2]+0.059*[#   1]+0.054*[#   3]+0.054*[#   4]+0.023*[#   6]
          +0.023*[#  10]+0.008*[#   5]+0.008*[#   9]+0.007*[#   7]+0.007*[#   8]
          +0.007*[#  11]+0.007*[#  12]
    |psi|^2 = 0.474

 k =   0.0000000000  0.1443375673  0.2909057081
==== e(   1) =    -3.68131 eV ==== 
     psi = 0.405*[#   2]+0.209*[#   5]+0.209*[#   9]+0.057*[#   1]+0.021*[#   3]
          +0.021*[#   4]+0.013*[#   6]+0.013*[#  10]+0.013*[#   7]+0.013*[#   8]
          +0.013*[#  11]+0.013*[#  12]
    |psi|^2 = 1.000
==== e(   2) =     1.47112 eV ==== 
     psi = 0.366*[#   6]+0.366*[#  10]+0.134*[#   1]+0.033*[#   2]+0.025*[#   5]
          +0.025*[#   9]+0.024*[#   3]+0.024*[#   4]
    |psi|^2 = 0.999
==== e(   3) =     7.16659 eV ==== 
     psi = 0.226*[#   7]+0.226*[#   8]+0.226*[#  11]+0.226*[#  12]+0.039*[#   5]
          +0.039*[#   9]+0.005*[#   3]+0.005*[#   4]
    |psi|^2 = 0.996
==== e(   4) =     7.76033 eV ==== 
     psi = 0.247*[#   7]+0.247*[#   8]+0.247*[#  11]+0.247*[#  12]+0.005*[#   3]
          +0.005*[#   4]
    |psi|^2 = 0.997
==== e(   5) =    14.02668 eV ==== 
     psi = 0.124*[#   7]+0.124*[#   8]+0.124*[#  11]+0.124*[#  12]+0.089*[#   6]
          +0.089*[#  10]+0.061*[#   5]+0.061*[#   9]+0.018*[#   3]+0.018*[#   4]
          +0.018*[#   1]+0.005*[#   2]
    |psi|^2 = 0.854
==== e(   6) =    14.46762 eV ==== 
     psi = 0.295*[#   6]+0.295*[#  10]+0.071*[#   3]+0.071*[#   4]+0.040*[#   7]
          +0.040*[#   8]+0.040*[#  11]+0.040*[#  12]+0.006*[#   1]+0.005*[#   5]
          +0.005*[#   9]+0.002*[#   2]
    |psi|^2 = 0.907
==== e(   7) =    15.42391 eV ==== 
     psi = 0.347*[#   1]+0.101*[#   5]+0.101*[#   9]+0.085*[#   6]+0.085*[#  10]
          +0.050*[#   3]+0.050*[#   4]+0.033*[#   2]+0.006*[#   7]+0.006*[#   8]
          +0.006*[#  11]+0.006*[#  12]
    |psi|^2 = 0.874
==== e(   8) =    15.47693 eV ==== 
     psi = 0.213*[#   7]+0.213*[#   8]+0.213*[#  11]+0.213*[#  12]+0.024*[#   3]
          +0.024*[#   4]
    |psi|^2 = 0.900
==== e(   9) =    18.15874 eV ==== 
     psi = 0.403*[#   5]+0.403*[#   9]+0.026*[#   7]+0.026*[#   8]+0.026*[#  11]
          +0.026*[#  12]+0.022*[#   6]+0.022*[#  10]+0.002*[#   2]
    |psi|^2 = 0.956
==== e(  10) =    19.49390 eV ==== 
     psi = 0.292*[#   3]+0.292*[#   4]+0.004*[#   7]+0.004*[#   8]+0.004*[#  11]
          +0.004*[#  12]
    |psi|^2 = 0.598
==== e(  11) =    20.12389 eV ==== 
     psi = 0.238*[#   1]+0.207*[#   3]+0.207*[#   4]+0.061*[#   6]+0.061*[#  10]
          +0.006*[#   5]+0.006*[#   9]+0.005*[#   7]+0.005*[#   8]+0.005*[#  11]
          +0.005*[#  12]+0.001*[#   2]
    |psi|^2 = 0.807
==== e(  12) =    22.39260 eV ==== 
     psi = 0.282*[#   2]+0.080*[#   5]+0.080*[#   9]+0.027*[#   7]+0.027*[#   8]
          +0.027*[#  11]+0.027*[#  12]+0.003*[#   6]+0.003*[#  10]+0.003*[#   3]
          +0.003*[#   4]
    |psi|^2 = 0.564
==== e(  13) =    23.25225 eV ==== 
     psi = 0.103*[#   2]+0.096*[#   1]+0.026*[#   5]+0.026*[#   9]+0.026*[#   6]
          +0.026*[#  10]+0.001*[#   3]+0.001*[#   4]+0.001*[#   7]+0.001*[#   8]
          +0.001*[#  11]+0.001*[#  12]
    |psi|^2 = 0.309
==== e(  14) =    24.52880 eV ==== 
     psi = 0.078*[#   3]+0.078*[#   4]+0.003*[#   7]+0.003*[#   8]+0.003*[#  11]
          +0.003*[#  12]
    |psi|^2 = 0.168
==== e(  15) =    26.23943 eV ==== 
     psi = 0.115*[#   2]+0.068*[#   1]+0.036*[#   3]+0.036*[#   4]+0.018*[#   6]
          +0.018*[#  10]+0.014*[#   5]+0.014*[#   9]+0.002*[#   7]+0.002*[#   8]
          +0.002*[#  11]+0.002*[#  12]
    |psi|^2 = 0.329

 k =   0.0000000000  0.1443375673  0.3636321351
==== e(   1) =    -3.38170 eV ==== 
     psi = 0.488*[#   2]+0.212*[#   5]+0.212*[#   9]+0.017*[#   1]+0.012*[#   7]
          +0.012*[#   8]+0.012*[#  11]+0.012*[#  12]+0.006*[#   3]+0.006*[#   4]
          +0.006*[#   6]+0.006*[#  10]
    |psi|^2 = 1.000
==== e(   2) =     0.78807 eV ==== 
     psi = 0.374*[#   6]+0.374*[#  10]+0.158*[#   1]+0.031*[#   3]+0.031*[#   4]
          +0.013*[#   2]+0.009*[#   5]+0.009*[#   9]
    |psi|^2 = 0.999
==== e(   3) =     7.26223 eV ==== 
     psi = 0.229*[#   7]+0.229*[#   8]+0.229*[#  11]+0.229*[#  12]+0.039*[#   5]
          +0.039*[#   9]+0.002*[#   3]+0.002*[#   4]
    |psi|^2 = 0.996
==== e(   4) =     7.82783 eV ==== 
     psi = 0.248*[#   7]+0.248*[#   8]+0.248*[#  11]+0.248*[#  12]+0.001*[#   3]
          +0.001*[#   4]
    |psi|^2 = 0.997
==== e(   5) =    14.01432 eV ==== 
     psi = 0.350*[#   6]+0.350*[#  10]+0.021*[#   1]+0.021*[#   3]+0.021*[#   4]
          +0.017*[#   5]+0.017*[#   9]+0.016*[#   7]+0.016*[#   8]+0.016*[#  11]
          +0.016*[#  12]
    |psi|^2 = 0.863
==== e(   6) =    14.34381 eV ==== 
     psi = 0.154*[#   7]+0.154*[#   8]+0.154*[#  11]+0.154*[#  12]+0.076*[#   5]
          +0.076*[#   9]+0.035*[#   6]+0.035*[#  10]+0.028*[#   3]+0.028*[#   4]
          +0.011*[#   2]+0.002*[#   1]
    |psi|^2 = 0.908
==== e(   7) =    15.54860 eV ==== 
     psi = 0.218*[#   7]+0.218*[#   8]+0.218*[#  11]+0.218*[#  12]+0.007*[#   3]
          +0.007*[#   4]
    |psi|^2 = 0.888
==== e(   8) =    17.06286 eV ==== 
     psi = 0.455*[#   1]+0.101*[#   6]+0.101*[#  10]+0.069*[#   3]+0.069*[#   4]
          +0.030*[#   5]+0.030*[#   9]+0.011*[#   2]
    |psi|^2 = 0.865
==== e(   9) =    18.32382 eV ==== 
     psi = 0.424*[#   5]+0.424*[#   9]+0.027*[#   7]+0.027*[#   8]+0.027*[#  11]
          +0.027*[#  12]+0.005*[#   6]+0.005*[#  10]+0.002*[#   2]
    |psi|^2 = 0.967
==== e(  10) =    19.01009 eV ==== 
     psi = 0.337*[#   3]+0.337*[#   4]+0.001*[#   7]+0.001*[#   8]+0.001*[#  11]
          +0.001*[#  12]
    |psi|^2 = 0.679
==== e(  11) =    19.75441 eV ==== 
     psi = 0.259*[#   3]+0.259*[#   4]+0.203*[#   1]+0.064*[#   6]+0.064*[#  10]
          +0.004*[#   5]+0.004*[#   9]+0.001*[#   7]+0.001*[#   8]+0.001*[#  11]
          +0.001*[#  12]
    |psi|^2 = 0.861
==== e(  12) =    22.56184 eV ==== 
     psi = 0.354*[#   2]+0.133*[#   5]+0.133*[#   9]+0.030*[#   7]+0.030*[#   8]
          +0.030*[#  11]+0.030*[#  12]+0.003*[#   3]+0.003*[#   4]+0.002*[#   6]
          +0.002*[#  10]
    |psi|^2 = 0.752
==== e(  13) =    22.91209 eV ==== 
     psi = 0.081*[#   1]+0.064*[#   2]+0.027*[#   6]+0.027*[#  10]+0.025*[#   5]
          +0.025*[#   9]+0.003*[#   3]+0.003*[#   4]+0.001*[#   7]+0.001*[#   8]
          +0.001*[#  11]+0.001*[#  12]
    |psi|^2 = 0.259
==== e(  14) =    24.09334 eV ==== 
     psi = 0.092*[#   3]+0.092*[#   4]
    |psi|^2 = 0.188
==== e(  15) =    24.78301 eV ==== 
     psi = 0.034*[#   2]+0.024*[#   1]+0.015*[#   3]+0.015*[#   4]+0.012*[#   5]
          +0.012*[#   9]+0.007*[#   6]+0.007*[#  10]
    |psi|^2 = 0.126

 k =   0.0000000000  0.1443375673 -0.4363585621
==== e(   1) =    -3.25166 eV ==== 
     psi = 0.522*[#   2]+0.215*[#   5]+0.215*[#   9]+0.012*[#   7]+0.012*[#   8]
          +0.012*[#  11]+0.012*[#  12]
    |psi|^2 = 0.999
==== e(   2) =     0.52861 eV ==== 
     psi = 0.380*[#   6]+0.380*[#  10]+0.170*[#   1]+0.035*[#   3]+0.035*[#   4]
          
    |psi|^2 = 0.999
==== e(   3) =     7.29874 eV ==== 
     psi = 0.230*[#   7]+0.230*[#   8]+0.230*[#  11]+0.230*[#  12]+0.038*[#   5]
          +0.038*[#   9]
    |psi|^2 = 0.996
==== e(   4) =     7.85386 eV ==== 
     psi = 0.249*[#   7]+0.249*[#   8]+0.249*[#  11]+0.249*[#  12]
    |psi|^2 = 0.997
==== e(   5) =    13.92925 eV ==== 
     psi = 0.387*[#   6]+0.387*[#  10]+0.039*[#   3]+0.039*[#   4]+0.023*[#   1]
          
    |psi|^2 = 0.875
==== e(   6) =    14.37056 eV ==== 
     psi = 0.171*[#   7]+0.171*[#   8]+0.171*[#  11]+0.171*[#  12]+0.100*[#   5]
          +0.100*[#   9]+0.013*[#   2]
    |psi|^2 = 0.896
==== e(   7) =    15.57556 eV ==== 
     psi = 0.221*[#   7]+0.221*[#   8]+0.221*[#  11]+0.221*[#  12]
    |psi|^2 = 0.883
==== e(   8) =    17.87253 eV ==== 
     psi = 0.560*[#   1]+0.108*[#   6]+0.108*[#  10]+0.058*[#   3]+0.058*[#   4]
          
    |psi|^2 = 0.893
==== e(   9) =    18.38151 eV ==== 
     psi = 0.431*[#   5]+0.431*[#   9]+0.027*[#   7]+0.027*[#   8]+0.027*[#  11]
          +0.027*[#  12]+0.001*[#   2]
    |psi|^2 = 0.971
==== e(  10) =    18.84530 eV ==== 
     psi = 0.356*[#   3]+0.356*[#   4]
    |psi|^2 = 0.711
==== e(  11) =    19.64512 eV ==== 
     psi = 0.298*[#   3]+0.298*[#   4]+0.150*[#   1]+0.065*[#   6]+0.065*[#  10]
          
    |psi|^2 = 0.876
==== e(  12) =    22.55953 eV ==== 
     psi = 0.443*[#   2]+0.193*[#   5]+0.193*[#   9]+0.031*[#   7]+0.031*[#   8]
          +0.031*[#  11]+0.031*[#  12]
    |psi|^2 = 0.951
==== e(  13) =    22.82432 eV ==== 
     psi = 0.054*[#   1]+0.026*[#   6]+0.026*[#  10]+0.010*[#   3]+0.010*[#   4]
          
    |psi|^2 = 0.126
==== e(  14) =    23.94285 eV ==== 
     psi = 0.098*[#   3]+0.098*[#   4]
    |psi|^2 = 0.196
==== e(  15) =    23.97575 eV ==== 
     psi = 0.005*[#   5]+0.005*[#   9]+0.004*[#   2]+0.002*[#   7]+0.002*[#   8]
          +0.002*[#  11]+0.002*[#  12]
    |psi|^2 = 0.021

 k =   0.0000000000  0.2165063509  0.0000000000
==== e(   1) =    -4.17060 eV ==== 
     psi = 0.208*[#   5]+0.208*[#   9]+0.172*[#   1]+0.134*[#   3]+0.134*[#   4]
          +0.036*[#   7]+0.036*[#   8]+0.036*[#  11]+0.036*[#  12]
    |psi|^2 = 1.000
==== e(   2) =     5.31376 eV ==== 
     psi = 0.447*[#   6]+0.447*[#  10]+0.106*[#   2]
    |psi|^2 = 0.999
==== e(   3) =     5.61938 eV ==== 
     psi = 0.202*[#   7]+0.202*[#   8]+0.202*[#  11]+0.202*[#  12]+0.070*[#   5]
          +0.070*[#   9]+0.021*[#   3]+0.021*[#   4]+0.005*[#   1]
    |psi|^2 = 0.995
==== e(   4) =     6.99890 eV ==== 
     psi = 0.239*[#   7]+0.239*[#   8]+0.239*[#  11]+0.239*[#  12]+0.021*[#   3]
          +0.021*[#   4]
    |psi|^2 = 0.997
==== e(   5) =     9.87968 eV ==== 
     psi = 0.183*[#   1]+0.163*[#   5]+0.163*[#   9]+0.155*[#   3]+0.155*[#   4]
          +0.022*[#   7]+0.022*[#   8]+0.022*[#  11]+0.022*[#  12]
    |psi|^2 = 0.908
==== e(   6) =    13.48216 eV ==== 
     psi = 0.183*[#   5]+0.183*[#   9]+0.103*[#   1]+0.101*[#   7]+0.101*[#   8]
          +0.101*[#  11]+0.101*[#  12]+0.016*[#   3]+0.016*[#   4]
    |psi|^2 = 0.906
==== e(   7) =    15.78320 eV ==== 
     psi = 0.462*[#   6]+0.462*[#  10]+0.009*[#   2]
    |psi|^2 = 0.934
==== e(   8) =    16.39503 eV ==== 
     psi = 0.198*[#   7]+0.198*[#   8]+0.198*[#  11]+0.198*[#  12]+0.059*[#   3]
          +0.059*[#   4]
    |psi|^2 = 0.910
==== e(   9) =    16.95569 eV ==== 
     psi = 0.199*[#   5]+0.199*[#   9]+0.102*[#   1]+0.061*[#   7]+0.061*[#   8]
          +0.061*[#  11]+0.061*[#  12]+0.040*[#   3]+0.040*[#   4]
    |psi|^2 = 0.824
==== e(  10) =    22.17991 eV ==== 
     psi = 0.134*[#   1]+0.114*[#   5]+0.114*[#   9]+0.067*[#   3]+0.067*[#   4]
          +0.014*[#   7]+0.014*[#   8]+0.014*[#  11]+0.014*[#  12]
    |psi|^2 = 0.551
==== e(  11) =    22.52277 eV ==== 
     psi = 0.391*[#   2]+0.043*[#   6]+0.043*[#  10]
    |psi|^2 = 0.478
==== e(  12) =    22.91561 eV ==== 
     psi = 0.271*[#   3]+0.271*[#   4]+0.017*[#   7]+0.017*[#   8]+0.017*[#  11]
          +0.017*[#  12]
    |psi|^2 = 0.609
==== e(  13) =    23.05984 eV ==== 
     psi = 0.159*[#   1]+0.033*[#   7]+0.033*[#   8]+0.033*[#  11]+0.033*[#  12]
          +0.001*[#   3]+0.001*[#   4]
    |psi|^2 = 0.292
==== e(  14) =    23.90905 eV ==== 

    |psi|^2 = 0.000
==== e(  15) =    27.76100 eV ==== 
     psi = 0.113*[#   1]+0.052*[#   3]+0.052*[#   4]+0.027*[#   5]+0.027*[#   9]
          +0.012*[#   7]+0.012*[#   8]+0.012*[#  11]+0.012*[#  12]
    |psi|^2 = 0.317

 k =   0.0000000000  0.2165063509  0.0727264270
==== e(   1) =    -4.11219 eV ==== 
     psi = 0.207*[#   5]+0.207*[#   9]+0.159*[#   1]+0.124*[#   3]+0.124*[#   4]
          +0.035*[#   7]+0.035*[#   8]+0.035*[#  11]+0.035*[#  12]+0.033*[#   2]
          +0.002*[#   6]+0.002*[#  10]
    |psi|^2 = 1.000
==== e(   2) =     4.83325 eV ==== 
     psi = 0.412*[#   6]+0.412*[#  10]+0.083*[#   2]+0.025*[#   1]+0.017*[#   5]
          +0.017*[#   9]+0.012*[#   3]+0.012*[#   4]+0.002*[#   7]+0.002*[#   8]
          +0.002*[#  11]+0.002*[#  12]
    |psi|^2 = 0.998
==== e(   3) =     5.65689 eV ==== 
     psi = 0.202*[#   7]+0.202*[#   8]+0.202*[#  11]+0.202*[#  12]+0.071*[#   5]
          +0.071*[#   9]+0.018*[#   3]+0.018*[#   4]+0.006*[#   1]+0.003*[#   6]
          +0.003*[#  10]
    |psi|^2 = 0.995
==== e(   4) =     7.01928 eV ==== 
     psi = 0.239*[#   7]+0.239*[#   8]+0.239*[#  11]+0.239*[#  12]+0.020*[#   3]
          +0.020*[#   4]
    |psi|^2 = 0.997
==== e(   5) =    10.48148 eV ==== 
     psi = 0.159*[#   1]+0.147*[#   3]+0.147*[#   4]+0.137*[#   5]+0.137*[#   9]
          +0.033*[#   6]+0.033*[#  10]+0.024*[#   7]+0.024*[#   8]+0.024*[#  11]
          +0.024*[#  12]+0.017*[#   2]
    |psi|^2 = 0.903
==== e(   6) =    13.52505 eV ==== 
     psi = 0.189*[#   5]+0.189*[#   9]+0.096*[#   7]+0.096*[#   8]+0.096*[#  11]
          +0.096*[#  12]+0.089*[#   1]+0.012*[#   3]+0.012*[#   4]+0.012*[#   2]
          +0.008*[#   6]+0.008*[#  10]
    |psi|^2 = 0.905
==== e(   7) =    15.32616 eV ==== 
     psi = 0.382*[#   6]+0.382*[#  10]+0.048*[#   1]+0.018*[#   3]+0.018*[#   4]
          +0.013*[#   7]+0.013*[#   8]+0.013*[#  11]+0.013*[#  12]+0.008*[#   5]
          +0.008*[#   9]+0.003*[#   2]
    |psi|^2 = 0.916
==== e(   8) =    16.41829 eV ==== 
     psi = 0.199*[#   7]+0.199*[#   8]+0.199*[#  11]+0.199*[#  12]+0.057*[#   3]
          +0.057*[#   4]
    |psi|^2 = 0.908
==== e(   9) =    17.35784 eV ==== 
     psi = 0.207*[#   5]+0.207*[#   9]+0.063*[#   6]+0.063*[#  10]+0.060*[#   1]
          +0.050*[#   7]+0.050*[#   8]+0.050*[#  11]+0.050*[#  12]+0.026*[#   3]
          +0.026*[#   4]+0.005*[#   2]
    |psi|^2 = 0.859
==== e(  10) =    21.58903 eV ==== 
     psi = 0.215*[#   1]+0.115*[#   2]+0.057*[#   5]+0.057*[#   9]+0.053*[#   3]
          +0.053*[#   4]+0.036*[#   6]+0.036*[#  10]+0.011*[#   7]+0.011*[#   8]
          +0.011*[#  11]+0.011*[#  12]
    |psi|^2 = 0.665
==== e(  11) =    21.87962 eV ==== 
     psi = 0.220*[#   3]+0.220*[#   4]+0.012*[#   7]+0.012*[#   8]+0.012*[#  11]
          +0.012*[#  12]
    |psi|^2 = 0.487
==== e(  12) =    22.93469 eV ==== 
     psi = 0.059*[#   2]+0.035*[#   5]+0.035*[#   9]+0.021*[#   1]+0.010*[#   3]
          +0.010*[#   4]+0.007*[#   6]+0.007*[#  10]+0.002*[#   7]+0.002*[#   8]
          +0.002*[#  11]+0.002*[#  12]
    |psi|^2 = 0.193
==== e(  13) =    23.18569 eV ==== 
     psi = 0.221*[#   2]+0.081*[#   1]+0.034*[#   7]+0.034*[#   8]+0.034*[#  11]
          +0.034*[#  12]+0.014*[#   5]+0.014*[#   9]+0.011*[#   3]+0.011*[#   4]
          +0.008*[#   6]+0.008*[#  10]
    |psi|^2 = 0.503
==== e(  14) =    25.06711 eV ==== 
     psi = 0.054*[#   3]+0.054*[#   4]+0.004*[#   7]+0.004*[#   8]+0.004*[#  11]
          +0.004*[#  12]
    |psi|^2 = 0.123
==== e(  15) =    27.90156 eV ==== 
     psi = 0.080*[#   1]+0.055*[#   3]+0.055*[#   4]+0.032*[#   2]+0.020*[#   5]
          +0.020*[#   9]+0.012*[#   7]+0.012*[#   8]+0.012*[#  11]+0.012*[#  12]
          +0.004*[#   6]+0.004*[#  10]
    |psi|^2 = 0.320

 k =   0.0000000000  0.2165063509  0.1454528540
==== e(   1) =    -3.94192 eV ==== 
     psi = 0.206*[#   5]+0.206*[#   9]+0.126*[#   1]+0.118*[#   2]+0.099*[#   3]
          +0.099*[#   4]+0.032*[#   7]+0.032*[#   8]+0.032*[#  11]+0.032*[#  12]
          +0.007*[#   6]+0.007*[#  10]
    |psi|^2 = 1.000
==== e(   2) =     3.83624 eV ==== 
     psi = 0.376*[#   6]+0.376*[#  10]+0.062*[#   1]+0.057*[#   2]+0.035*[#   5]
          +0.035*[#   9]+0.023*[#   3]+0.023*[#   4]+0.003*[#   7]+0.003*[#   8]
          +0.003*[#  11]+0.003*[#  12]
    |psi|^2 = 0.997
==== e(   3) =     5.74985 eV ==== 
     psi = 0.203*[#   7]+0.203*[#   8]+0.203*[#  11]+0.203*[#  12]+0.071*[#   5]
          +0.071*[#   9]+0.015*[#   3]+0.015*[#   4]+0.005*[#   1]+0.002*[#   6]
          +0.002*[#  10]
    |psi|^2 = 0.995
==== e(   4) =     7.07653 eV ==== 
     psi = 0.241*[#   7]+0.241*[#   8]+0.241*[#  11]+0.241*[#  12]+0.017*[#   3]
          +0.017*[#   4]
    |psi|^2 = 0.998
==== e(   5) =    11.82850 eV ==== 
     psi = 0.141*[#   3]+0.141*[#   4]+0.131*[#   1]+0.083*[#   5]+0.083*[#   9]
          +0.070*[#   6]+0.070*[#  10]+0.034*[#   7]+0.034*[#   8]+0.034*[#  11]
          +0.034*[#  12]+0.022*[#   2]
    |psi|^2 = 0.877
==== e(   6) =    13.64944 eV ==== 
     psi = 0.204*[#   5]+0.204*[#   9]+0.072*[#   7]+0.072*[#   8]+0.072*[#  11]
          +0.072*[#  12]+0.058*[#   1]+0.053*[#   6]+0.053*[#  10]+0.038*[#   2]
          
    |psi|^2 = 0.900
==== e(   7) =    14.59814 eV ==== 
     psi = 0.310*[#   6]+0.310*[#  10]+0.101*[#   1]+0.039*[#   3]+0.039*[#   4]
          +0.028*[#   7]+0.028*[#   8]+0.028*[#  11]+0.028*[#  12]+0.008*[#   5]
          +0.008*[#   9]
    |psi|^2 = 0.928
==== e(   8) =    16.48375 eV ==== 
     psi = 0.201*[#   7]+0.201*[#   8]+0.201*[#  11]+0.201*[#  12]+0.049*[#   3]
          +0.049*[#   4]
    |psi|^2 = 0.902
==== e(   9) =    17.96071 eV ==== 
     psi = 0.252*[#   5]+0.252*[#   9]+0.066*[#   6]+0.066*[#  10]+0.047*[#   7]
          +0.047*[#   8]+0.047*[#  11]+0.047*[#  12]+0.029*[#   1]+0.016*[#   3]
          +0.016*[#   4]+0.009*[#   2]
    |psi|^2 = 0.895
==== e(  10) =    20.65322 eV ==== 
     psi = 0.255*[#   3]+0.255*[#   4]+0.010*[#   7]+0.010*[#   8]+0.010*[#  11]
          +0.010*[#  12]
    |psi|^2 = 0.551
==== e(  11) =    20.81848 eV ==== 
     psi = 0.326*[#   1]+0.074*[#   2]+0.070*[#   3]+0.070*[#   4]+0.055*[#   6]
          +0.055*[#  10]+0.041*[#   5]+0.041*[#   9]+0.010*[#   7]+0.010*[#   8]
          +0.010*[#  11]+0.010*[#  12]
    |psi|^2 = 0.769
==== e(  12) =    23.14750 eV ==== 
     psi = 0.049*[#   2]+0.039*[#   1]+0.020*[#   7]+0.020*[#   8]+0.020*[#  11]
          +0.020*[#  12]+0.011*[#   5]+0.011*[#   9]+0.004*[#   6]+0.004*[#  10]
          
    |psi|^2 = 0.198
==== e(  13) =    23.56598 eV ==== 
     psi = 0.293*[#   2]+0.035*[#   5]+0.035*[#   9]+0.020*[#   3]+0.020*[#   4]
          +0.019*[#   7]+0.019*[#   8]+0.019*[#  11]+0.019*[#  12]+0.015*[#   6]
          +0.015*[#  10]
    |psi|^2 = 0.511
==== e(  14) =    26.41933 eV ==== 
     psi = 0.012*[#   3]+0.012*[#   4]
    |psi|^2 = 0.028
==== e(  15) =    28.18734 eV ==== 
     psi = 0.163*[#   2]+0.063*[#   3]+0.063*[#   4]+0.015*[#   6]+0.015*[#  10]
          +0.012*[#   7]+0.012*[#   8]+0.012*[#  11]+0.012*[#  12]+0.007*[#   1]
          +0.007*[#   5]+0.007*[#   9]
    |psi|^2 = 0.388

 k =   0.0000000000  0.2165063509  0.2181792811
==== e(   1) =    -3.67712 eV ==== 
     psi = 0.224*[#   2]+0.207*[#   5]+0.207*[#   9]+0.085*[#   1]+0.068*[#   3]
          +0.068*[#   4]+0.030*[#   7]+0.030*[#   8]+0.030*[#  11]+0.030*[#  12]
          +0.011*[#   6]+0.011*[#  10]
    |psi|^2 = 1.000
==== e(   2) =     2.77466 eV ==== 
     psi = 0.359*[#   6]+0.359*[#  10]+0.091*[#   1]+0.042*[#   2]+0.037*[#   5]
          +0.037*[#   9]+0.032*[#   3]+0.032*[#   4]+0.002*[#   7]+0.002*[#   8]
          +0.002*[#  11]+0.002*[#  12]
    |psi|^2 = 0.998
==== e(   3) =     5.88329 eV ==== 
     psi = 0.206*[#   7]+0.206*[#   8]+0.206*[#  11]+0.206*[#  12]+0.070*[#   5]
          +0.070*[#   9]+0.012*[#   3]+0.012*[#   4]+0.003*[#   1]+0.002*[#   6]
          +0.002*[#  10]
    |psi|^2 = 0.996
==== e(   4) =     7.15753 eV ==== 
     psi = 0.243*[#   7]+0.243*[#   8]+0.243*[#  11]+0.243*[#  12]+0.012*[#   3]
          +0.012*[#   4]
    |psi|^2 = 0.998
==== e(   5) =    13.10767 eV ==== 
     psi = 0.126*[#   6]+0.126*[#  10]+0.074*[#   1]+0.071*[#   7]+0.071*[#   8]
          +0.071*[#  11]+0.071*[#  12]+0.053*[#   3]+0.053*[#   4]+0.048*[#   5]
          +0.048*[#   9]
    |psi|^2 = 0.814
==== e(   6) =    13.78075 eV ==== 
     psi = 0.265*[#   6]+0.265*[#  10]+0.131*[#   3]+0.131*[#   4]+0.028*[#   5]
          +0.028*[#   9]+0.015*[#   7]+0.015*[#   8]+0.015*[#  11]+0.015*[#  12]
          +0.009*[#   2]
    |psi|^2 = 0.917
==== e(   7) =    14.34587 eV ==== 
     psi = 0.231*[#   1]+0.185*[#   5]+0.185*[#   9]+0.060*[#   6]+0.060*[#  10]
          +0.055*[#   2]+0.045*[#   7]+0.045*[#   8]+0.045*[#  11]+0.045*[#  12]
          
    |psi|^2 = 0.958
==== e(   8) =    16.57773 eV ==== 
     psi = 0.205*[#   7]+0.205*[#   8]+0.205*[#  11]+0.205*[#  12]+0.036*[#   3]
          +0.036*[#   4]
    |psi|^2 = 0.894
==== e(   9) =    18.46735 eV ==== 
     psi = 0.302*[#   5]+0.302*[#   9]+0.047*[#   7]+0.047*[#   8]+0.047*[#  11]
          +0.047*[#  12]+0.043*[#   6]+0.043*[#  10]+0.015*[#   1]+0.011*[#   2]
          +0.010*[#   3]+0.010*[#   4]
    |psi|^2 = 0.925
==== e(  10) =    19.62888 eV ==== 
     psi = 0.307*[#   3]+0.307*[#   4]+0.008*[#   7]+0.008*[#   8]+0.008*[#  11]
          +0.008*[#  12]
    |psi|^2 = 0.648
==== e(  11) =    20.08261 eV ==== 
     psi = 0.377*[#   1]+0.101*[#   3]+0.101*[#   4]+0.064*[#   6]+0.064*[#  10]
          +0.037*[#   2]+0.033*[#   5]+0.033*[#   9]+0.008*[#   7]+0.008*[#   8]
          +0.008*[#  11]+0.008*[#  12]
    |psi|^2 = 0.841
==== e(  12) =    23.32831 eV ==== 
     psi = 0.161*[#   2]+0.029*[#   7]+0.029*[#   8]+0.029*[#  11]+0.029*[#  12]
          +0.014*[#   5]+0.014*[#   9]+0.012*[#   1]+0.008*[#   6]+0.008*[#  10]
          
    |psi|^2 = 0.334
==== e(  13) =    23.78591 eV ==== 
     psi = 0.252*[#   2]+0.029*[#   6]+0.029*[#  10]+0.027*[#   5]+0.027*[#   9]
          +0.019*[#   3]+0.019*[#   4]+0.015*[#   7]+0.015*[#   8]+0.015*[#  11]
          +0.015*[#  12]+0.011*[#   1]
    |psi|^2 = 0.474
==== e(  14) =    26.42701 eV ==== 
     psi = 0.013*[#   3]+0.013*[#   4]+0.003*[#   7]+0.003*[#   8]+0.003*[#  11]
          +0.003*[#  12]
    |psi|^2 = 0.037
==== e(  15) =    27.95853 eV ==== 
     psi = 0.187*[#   2]+0.045*[#   3]+0.045*[#   4]+0.024*[#   1]+0.021*[#   6]
          +0.021*[#  10]+0.005*[#   7]+0.005*[#   8]+0.005*[#  11]+0.005*[#  12]
          +0.005*[#   5]+0.005*[#   9]
    |psi|^2 = 0.374

 k =   0.0000000000  0.2165063509  0.2909057081
==== e(   1) =    -3.35767 eV ==== 
     psi = 0.326*[#   2]+0.212*[#   5]+0.212*[#   9]+0.046*[#   1]+0.037*[#   3]
          +0.037*[#   4]+0.027*[#   7]+0.027*[#   8]+0.027*[#  11]+0.027*[#  12]
          +0.010*[#   6]+0.010*[#  10]
    |psi|^2 = 1.000
==== e(   2) =     1.84072 eV ==== 
     psi = 0.354*[#   6]+0.354*[#  10]+0.117*[#   1]+0.043*[#   3]+0.043*[#   4]
          +0.029*[#   2]+0.026*[#   5]+0.026*[#   9]+0.002*[#   7]+0.002*[#   8]
          +0.002*[#  11]+0.002*[#  12]
    |psi|^2 = 0.999
==== e(   3) =     6.02800 eV ==== 
     psi = 0.209*[#   7]+0.209*[#   8]+0.209*[#  11]+0.209*[#  12]+0.070*[#   5]
          +0.070*[#   9]+0.007*[#   3]+0.007*[#   4]+0.002*[#   1]+0.001*[#   6]
          +0.001*[#  10]
    |psi|^2 = 0.996
==== e(   4) =     7.24168 eV ==== 
     psi = 0.246*[#   7]+0.246*[#   8]+0.246*[#  11]+0.246*[#  12]+0.007*[#   3]
          +0.007*[#   4]
    |psi|^2 = 0.997
==== e(   5) =    12.94935 eV ==== 
     psi = 0.337*[#   6]+0.337*[#  10]+0.065*[#   1]+0.022*[#   5]+0.022*[#   9]
          +0.019*[#   3]+0.019*[#   4]+0.011*[#   7]+0.011*[#   8]+0.011*[#  11]
          +0.011*[#  12]+0.001*[#   2]
    |psi|^2 = 0.866
==== e(   6) =    13.97014 eV ==== 
     psi = 0.117*[#   7]+0.117*[#   8]+0.117*[#  11]+0.117*[#  12]+0.109*[#   5]
          +0.109*[#   9]+0.076*[#   3]+0.076*[#   4]+0.027*[#   6]+0.027*[#  10]
          +0.018*[#   2]+0.005*[#   1]
    |psi|^2 = 0.913
==== e(   7) =    15.73545 eV ==== 
     psi = 0.291*[#   1]+0.100*[#   6]+0.100*[#  10]+0.099*[#   5]+0.099*[#   9]
          +0.085*[#   3]+0.085*[#   4]+0.035*[#   2]
    |psi|^2 = 0.895
==== e(   8) =    16.67793 eV ==== 
     psi = 0.210*[#   7]+0.210*[#   8]+0.210*[#  11]+0.210*[#  12]+0.022*[#   3]
          +0.022*[#   4]
    |psi|^2 = 0.884
==== e(   9) =    18.83677 eV ==== 
     psi = 0.338*[#   5]+0.338*[#   9]+0.048*[#   7]+0.048*[#   8]+0.048*[#  11]
          +0.048*[#  12]+0.023*[#   6]+0.023*[#  10]+0.013*[#   1]+0.010*[#   2]
          +0.006*[#   3]+0.006*[#   4]
    |psi|^2 = 0.948
==== e(  10) =    18.85820 eV ==== 
     psi = 0.361*[#   3]+0.361*[#   4]+0.005*[#   7]+0.005*[#   8]+0.005*[#  11]
          +0.005*[#  12]
    |psi|^2 = 0.743
==== e(  11) =    19.47254 eV ==== 
     psi = 0.364*[#   1]+0.143*[#   3]+0.143*[#   4]+0.067*[#   6]+0.067*[#  10]
          +0.029*[#   5]+0.029*[#   9]+0.018*[#   2]+0.005*[#   7]+0.005*[#   8]
          +0.005*[#  11]+0.005*[#  12]
    |psi|^2 = 0.880
==== e(  12) =    23.49367 eV ==== 
     psi = 0.279*[#   2]+0.040*[#   7]+0.040*[#   8]+0.040*[#  11]+0.040*[#  12]
          +0.034*[#   5]+0.034*[#   9]+0.008*[#   6]+0.008*[#  10]
    |psi|^2 = 0.525
==== e(  13) =    23.76446 eV ==== 
     psi = 0.187*[#   2]+0.042*[#   6]+0.042*[#  10]+0.027*[#   1]+0.023*[#   5]
          +0.023*[#   9]+0.018*[#   3]+0.018*[#   4]+0.011*[#   7]+0.011*[#   8]
          +0.011*[#  11]+0.011*[#  12]
    |psi|^2 = 0.423
==== e(  14) =    25.84863 eV ==== 
     psi = 0.029*[#   3]+0.029*[#   4]+0.002*[#   7]+0.002*[#   8]+0.002*[#  11]
          +0.002*[#  12]
    |psi|^2 = 0.066
==== e(  15) =    26.91867 eV ==== 
     psi = 0.065*[#   2]+0.034*[#   1]+0.026*[#   3]+0.026*[#   4]+0.015*[#   6]
          +0.015*[#  10]+0.005*[#   5]+0.005*[#   9]
    |psi|^2 = 0.194

 k =   0.0000000000  0.2165063509  0.3636321351
==== e(   1) =    -3.06726 eV ==== 
     psi = 0.405*[#   2]+0.222*[#   5]+0.222*[#   9]+0.026*[#   7]+0.026*[#   8]
          +0.026*[#  11]+0.026*[#  12]+0.014*[#   1]+0.011*[#   3]+0.011*[#   4]
          +0.005*[#   6]+0.005*[#  10]
    |psi|^2 = 0.999
==== e(   2) =     1.16947 eV ==== 
     psi = 0.357*[#   6]+0.357*[#  10]+0.140*[#   1]+0.056*[#   3]+0.056*[#   4]
          +0.011*[#   2]+0.009*[#   5]+0.009*[#   9]
    |psi|^2 = 0.999
==== e(   3) =     6.14275 eV ==== 
     psi = 0.213*[#   7]+0.213*[#   8]+0.213*[#  11]+0.213*[#  12]+0.070*[#   5]
          +0.070*[#   9]+0.002*[#   3]+0.002*[#   4]
    |psi|^2 = 0.996
==== e(   4) =     7.30557 eV ==== 
     psi = 0.248*[#   7]+0.248*[#   8]+0.248*[#  11]+0.248*[#  12]+0.002*[#   3]
          +0.002*[#   4]
    |psi|^2 = 0.997
==== e(   5) =    12.58761 eV ==== 
     psi = 0.357*[#   6]+0.357*[#  10]+0.070*[#   1]+0.046*[#   3]+0.046*[#   4]
          +0.004*[#   5]+0.004*[#   9]+0.002*[#   7]+0.002*[#   8]+0.002*[#  11]
          +0.002*[#  12]
    |psi|^2 = 0.891
==== e(   6) =    14.14508 eV ==== 
     psi = 0.172*[#   5]+0.172*[#   9]+0.123*[#   7]+0.123*[#   8]+0.123*[#  11]
          +0.123*[#  12]+0.028*[#   2]+0.018*[#   3]+0.018*[#   4]+0.003*[#   6]
          +0.003*[#  10]+0.002*[#   1]
    |psi|^2 = 0.905
==== e(   7) =    16.75712 eV ==== 
     psi = 0.215*[#   7]+0.215*[#   8]+0.215*[#  11]+0.215*[#  12]+0.007*[#   3]
          +0.007*[#   4]
    |psi|^2 = 0.873
==== e(   8) =    17.32929 eV ==== 
     psi = 0.434*[#   1]+0.117*[#   6]+0.117*[#  10]+0.079*[#   3]+0.079*[#   4]
          +0.026*[#   5]+0.026*[#   9]+0.011*[#   2]
    |psi|^2 = 0.892
==== e(   9) =    18.37655 eV ==== 
     psi = 0.403*[#   3]+0.403*[#   4]+0.002*[#   7]+0.002*[#   8]+0.002*[#  11]
          +0.002*[#  12]
    |psi|^2 = 0.814
==== e(  10) =    19.04255 eV ==== 
     psi = 0.254*[#   5]+0.254*[#   9]+0.097*[#   1]+0.067*[#   3]+0.067*[#   4]
          +0.039*[#   6]+0.039*[#  10]+0.033*[#   7]+0.033*[#   8]+0.033*[#  11]
          +0.033*[#  12]+0.002*[#   2]
    |psi|^2 = 0.953
==== e(  11) =    19.12405 eV ==== 
     psi = 0.174*[#   1]+0.151*[#   3]+0.151*[#   4]+0.125*[#   5]+0.125*[#   9]
          +0.040*[#   6]+0.040*[#  10]+0.017*[#   7]+0.017*[#   8]+0.017*[#  11]
          +0.017*[#  12]+0.015*[#   2]
    |psi|^2 = 0.890
==== e(  12) =    23.40270 eV ==== 
     psi = 0.495*[#   2]+0.092*[#   5]+0.092*[#   9]+0.049*[#   7]+0.049*[#   8]
          +0.049*[#  11]+0.049*[#  12]+0.010*[#   1]+0.009*[#   3]+0.009*[#   4]
          +0.005*[#   6]+0.005*[#  10]
    |psi|^2 = 0.916
==== e(  13) =    23.69727 eV ==== 
     psi = 0.048*[#   6]+0.048*[#  10]+0.017*[#   1]+0.006*[#   3]+0.006*[#   4]
          +0.001*[#   7]+0.001*[#   8]+0.001*[#  11]+0.001*[#  12]+0.001*[#   5]
          +0.001*[#   9]
    |psi|^2 = 0.133
==== e(  14) =    25.42754 eV ==== 
     psi = 0.035*[#   3]+0.035*[#   4]
    |psi|^2 = 0.073
==== e(  15) =    25.53447 eV ==== 
     psi = 0.011*[#   1]+0.007*[#   3]+0.007*[#   4]+0.005*[#   6]+0.005*[#  10]
[...]
          
    |psi|^2 = 0.999
==== e(   4) =     8.66621 eV ==== 
     psi = 0.442*[#   6]+0.442*[#  10]+0.031*[#   3]+0.031*[#   4]+0.006*[#   5]
          +0.006*[#   9]+0.005*[#   2]+0.003*[#   7]+0.003*[#   8]+0.003*[#  11]
          +0.003*[#  12]+0.001*[#   1]
    |psi|^2 = 0.977
==== e(   5) =     9.48825 eV ==== 
     psi = 0.438*[#   6]+0.438*[#  10]+0.036*[#   3]+0.036*[#   4]+0.004*[#   7]
          +0.004*[#   8]+0.004*[#  11]+0.004*[#  12]+0.003*[#   5]+0.003*[#   9]
          
    |psi|^2 = 0.969
==== e(   6) =    14.15206 eV ==== 
     psi = 0.339*[#   3]+0.339*[#   4]+0.039*[#   7]+0.039*[#   8]+0.039*[#  11]
          +0.039*[#  12]+0.038*[#   6]+0.038*[#  10]+0.011*[#   5]+0.011*[#   9]
          +0.009*[#   1]
    |psi|^2 = 0.941
==== e(   7) =    14.62344 eV ==== 
     psi = 0.332*[#   3]+0.332*[#   4]+0.046*[#   7]+0.046*[#   8]+0.046*[#  11]
          +0.046*[#  12]+0.039*[#   6]+0.039*[#  10]
    |psi|^2 = 0.923
==== e(   8) =    15.35151 eV ==== 
     psi = 0.533*[#   1]+0.400*[#   2]+0.006*[#   7]+0.006*[#   8]+0.006*[#  11]
          +0.006*[#  12]+0.003*[#   3]+0.003*[#   4]
    |psi|^2 = 0.966
==== e(   9) =    17.72648 eV ==== 
     psi = 0.498*[#   2]+0.342*[#   1]+0.016*[#   5]+0.016*[#   9]+0.015*[#   7]
          +0.015*[#   8]+0.015*[#  11]+0.015*[#  12]
    |psi|^2 = 0.935
==== e(  10) =    19.95892 eV ==== 
     psi = 0.276*[#   5]+0.276*[#   9]+0.068*[#   7]+0.068*[#   8]+0.068*[#  11]
          +0.068*[#  12]+0.048*[#   3]+0.048*[#   4]+0.003*[#   6]+0.003*[#  10]
          
    |psi|^2 = 0.924
==== e(  11) =    20.34898 eV ==== 
     psi = 0.159*[#   5]+0.159*[#   9]+0.051*[#   7]+0.051*[#   8]+0.051*[#  11]
          +0.051*[#  12]+0.048*[#   1]+0.026*[#   2]+0.019*[#   3]+0.019*[#   4]
          +0.002*[#   6]+0.002*[#  10]
    |psi|^2 = 0.639
==== e(  12) =    21.54333 eV ==== 
     psi = 0.085*[#   5]+0.085*[#   9]+0.034*[#   7]+0.034*[#   8]+0.034*[#  11]
          +0.034*[#  12]+0.001*[#   3]+0.001*[#   4]
    |psi|^2 = 0.310
==== e(  13) =    27.13952 eV ==== 
     psi = 0.245*[#   7]+0.245*[#   8]+0.245*[#  11]+0.245*[#  12]+0.004*[#   5]
          +0.004*[#   9]
    |psi|^2 = 0.987
==== e(  14) =    28.50103 eV ==== 
     psi = 0.016*[#   6]+0.016*[#  10]+0.005*[#   3]+0.005*[#   4]+0.002*[#   5]
          +0.002*[#   9]+0.002*[#   7]+0.002*[#   8]+0.002*[#  11]+0.002*[#  12]
          
    |psi|^2 = 0.053
==== e(  15) =    29.48731 eV ==== 
     psi = 0.014*[#   6]+0.014*[#  10]+0.006*[#   2]+0.004*[#   3]+0.004*[#   4]
          +0.002*[#   7]+0.002*[#   8]+0.002*[#  11]+0.002*[#  12]+0.001*[#   5]
          +0.001*[#   9]
    |psi|^2 = 0.051

 k =   0.3125000000  0.5412658774  0.1454528540
==== e(   1) =     0.17568 eV ==== 
     psi = 0.196*[#   5]+0.196*[#   9]+0.112*[#   7]+0.112*[#   8]+0.112*[#  11]
          +0.112*[#  12]+0.073*[#   3]+0.073*[#   4]+0.006*[#   1]+0.003*[#   6]
          +0.003*[#  10]+0.002*[#   2]
    |psi|^2 = 0.999
==== e(   2) =     0.93446 eV ==== 
     psi = 0.195*[#   5]+0.195*[#   9]+0.123*[#   7]+0.123*[#   8]+0.123*[#  11]
          +0.123*[#  12]+0.055*[#   3]+0.055*[#   4]+0.003*[#   6]+0.003*[#  10]
          
    |psi|^2 = 0.998
==== e(   3) =     2.11089 eV ==== 
     psi = 0.226*[#   7]+0.226*[#   8]+0.226*[#  11]+0.226*[#  12]+0.046*[#   1]
          +0.018*[#   2]+0.012*[#   5]+0.012*[#   9]+0.004*[#   3]+0.004*[#   4]
          
    |psi|^2 = 0.999
==== e(   4) =     7.78335 eV ==== 
     psi = 0.389*[#   6]+0.389*[#  10]+0.073*[#   3]+0.073*[#   4]+0.015*[#   5]
          +0.015*[#   9]+0.007*[#   7]+0.007*[#   8]+0.007*[#  11]+0.007*[#  12]
          +0.003*[#   2]+0.003*[#   1]
    |psi|^2 = 0.985
==== e(   5) =     8.59586 eV ==== 
     psi = 0.385*[#   6]+0.385*[#  10]+0.082*[#   3]+0.082*[#   4]+0.008*[#   5]
          +0.008*[#   9]+0.007*[#   7]+0.007*[#   8]+0.007*[#  11]+0.007*[#  12]
          
    |psi|^2 = 0.980
==== e(   6) =    14.08673 eV ==== 
     psi = 0.681*[#   1]+0.266*[#   2]+0.004*[#   7]+0.004*[#   8]+0.004*[#  11]
          +0.004*[#  12]+0.003*[#   6]+0.003*[#  10]
    |psi|^2 = 0.967
==== e(   7) =    15.40557 eV ==== 
     psi = 0.299*[#   3]+0.299*[#   4]+0.079*[#   6]+0.079*[#  10]+0.037*[#   7]
          +0.037*[#   8]+0.037*[#  11]+0.037*[#  12]
    |psi|^2 = 0.909
==== e(   8) =    15.82639 eV ==== 
     psi = 0.270*[#   3]+0.270*[#   4]+0.077*[#   6]+0.077*[#  10]+0.046*[#   7]
          +0.046*[#   8]+0.046*[#  11]+0.046*[#  12]+0.007*[#   5]+0.007*[#   9]
          
    |psi|^2 = 0.891
==== e(   9) =    18.37127 eV ==== 
     psi = 0.548*[#   2]+0.197*[#   1]+0.033*[#   5]+0.033*[#   9]+0.020*[#   7]
          +0.020*[#   8]+0.020*[#  11]+0.020*[#  12]+0.003*[#   3]+0.003*[#   4]
          
    |psi|^2 = 0.897
==== e(  10) =    20.10272 eV ==== 
     psi = 0.259*[#   5]+0.259*[#   9]+0.068*[#   3]+0.068*[#   4]+0.063*[#   7]
          +0.063*[#   8]+0.063*[#  11]+0.063*[#  12]+0.013*[#   6]+0.013*[#  10]
          
    |psi|^2 = 0.932
==== e(  11) =    20.87714 eV ==== 
     psi = 0.204*[#   5]+0.204*[#   9]+0.078*[#   2]+0.073*[#   7]+0.073*[#   8]
          +0.073*[#  11]+0.073*[#  12]+0.047*[#   1]+0.027*[#   3]+0.027*[#   4]
          +0.007*[#   6]+0.007*[#  10]
    |psi|^2 = 0.894
==== e(  12) =    22.28240 eV ==== 
     psi = 0.018*[#   5]+0.018*[#   9]+0.011*[#   1]+0.009*[#   2]+0.009*[#   7]
          +0.009*[#   8]+0.009*[#  11]+0.009*[#  12]
    |psi|^2 = 0.090
==== e(  13) =    27.14336 eV ==== 
     psi = 0.242*[#   7]+0.242*[#   8]+0.242*[#  11]+0.242*[#  12]+0.003*[#   5]
          +0.003*[#   9]
    |psi|^2 = 0.977
==== e(  14) =    27.90101 eV ==== 
     psi = 0.015*[#   6]+0.015*[#  10]+0.013*[#   3]+0.013*[#   4]+0.006*[#   7]
          +0.006*[#   8]+0.006*[#  11]+0.006*[#  12]+0.005*[#   5]+0.005*[#   9]
          
    |psi|^2 = 0.089
==== e(  15) =    28.86180 eV ==== 
     psi = 0.013*[#   6]+0.013*[#  10]+0.011*[#   3]+0.011*[#   4]+0.004*[#   2]
          +0.004*[#   7]+0.004*[#   8]+0.004*[#  11]+0.004*[#  12]+0.003*[#   5]
          +0.003*[#   9]
    |psi|^2 = 0.074

 k =   0.3125000000  0.5412658774  0.2181792811
==== e(   1) =     0.38162 eV ==== 
     psi = 0.209*[#   5]+0.209*[#   9]+0.114*[#   7]+0.114*[#   8]+0.114*[#  11]
          +0.114*[#  12]+0.053*[#   3]+0.053*[#   4]+0.005*[#   2]+0.005*[#   6]
          +0.005*[#  10]+0.004*[#   1]
    |psi|^2 = 0.999
==== e(   2) =     1.13181 eV ==== 
     psi = 0.204*[#   5]+0.204*[#   9]+0.126*[#   7]+0.126*[#   8]+0.126*[#  11]
          +0.126*[#  12]+0.039*[#   3]+0.039*[#   4]+0.005*[#   6]+0.005*[#  10]
          
    |psi|^2 = 0.998
==== e(   3) =     2.26976 eV ==== 
     psi = 0.225*[#   7]+0.225*[#   8]+0.225*[#  11]+0.225*[#  12]+0.034*[#   2]
          +0.033*[#   1]+0.012*[#   5]+0.012*[#   9]+0.003*[#   3]+0.003*[#   4]
          
    |psi|^2 = 0.999
==== e(   4) =     6.84199 eV ==== 
     psi = 0.360*[#   6]+0.360*[#  10]+0.100*[#   3]+0.100*[#   4]+0.017*[#   5]
          +0.017*[#   9]+0.007*[#   7]+0.007*[#   8]+0.007*[#  11]+0.007*[#  12]
          +0.006*[#   1]+0.002*[#   2]
    |psi|^2 = 0.991
==== e(   5) =     7.65865 eV ==== 
     psi = 0.359*[#   6]+0.359*[#  10]+0.110*[#   3]+0.110*[#   4]+0.010*[#   5]
          +0.010*[#   9]+0.008*[#   7]+0.008*[#   8]+0.008*[#  11]+0.008*[#  12]
          
    |psi|^2 = 0.988
==== e(   6) =    12.98909 eV ==== 
     psi = 0.805*[#   1]+0.144*[#   2]+0.003*[#   7]+0.003*[#   8]+0.003*[#  11]
          +0.003*[#  12]+0.002*[#   3]+0.002*[#   4]+0.002*[#   6]+0.002*[#  10]
          
    |psi|^2 = 0.968
==== e(   7) =    16.90573 eV ==== 
     psi = 0.253*[#   3]+0.253*[#   4]+0.090*[#   6]+0.090*[#  10]+0.042*[#   7]
          +0.042*[#   8]+0.042*[#  11]+0.042*[#  12]+0.005*[#   5]+0.005*[#   9]
          +0.004*[#   2]
    |psi|^2 = 0.870
==== e(   8) =    17.20812 eV ==== 
     psi = 0.203*[#   3]+0.203*[#   4]+0.077*[#   6]+0.077*[#  10]+0.055*[#   7]
          +0.055*[#   8]+0.055*[#  11]+0.055*[#  12]+0.041*[#   5]+0.041*[#   9]
          
    |psi|^2 = 0.863
==== e(   9) =    18.75326 eV ==== 
     psi = 0.600*[#   2]+0.103*[#   1]+0.036*[#   5]+0.036*[#   9]+0.019*[#   7]
          +0.019*[#   8]+0.019*[#  11]+0.019*[#  12]+0.015*[#   3]+0.015*[#   4]
          +0.006*[#   6]+0.006*[#  10]
    |psi|^2 = 0.894
==== e(  10) =    20.36918 eV ==== 
     psi = 0.217*[#   5]+0.217*[#   9]+0.114*[#   3]+0.114*[#   4]+0.051*[#   7]
          +0.051*[#   8]+0.051*[#  11]+0.051*[#  12]+0.036*[#   6]+0.036*[#  10]
          
    |psi|^2 = 0.940
==== e(  11) =    21.16025 eV ==== 
     psi = 0.198*[#   5]+0.198*[#   9]+0.101*[#   2]+0.074*[#   7]+0.074*[#   8]
          +0.074*[#  11]+0.074*[#  12]+0.042*[#   3]+0.042*[#   4]+0.021*[#   1]
          +0.016*[#   6]+0.016*[#  10]
    |psi|^2 = 0.931
==== e(  12) =    23.78141 eV ==== 
     psi = 0.020*[#   2]+0.015*[#   1]+0.002*[#   5]+0.002*[#   9]+0.002*[#   7]
          +0.002*[#   8]+0.002*[#  11]+0.002*[#  12]+0.001*[#   3]+0.001*[#   4]
          
    |psi|^2 = 0.050
==== e(  13) =    27.09094 eV ==== 
     psi = 0.178*[#   7]+0.178*[#   8]+0.178*[#  11]+0.178*[#  12]+0.007*[#   3]
          +0.007*[#   4]+0.005*[#   6]+0.005*[#  10]
    |psi|^2 = 0.735
==== e(  14) =    27.34959 eV ==== 
     psi = 0.070*[#   7]+0.070*[#   8]+0.070*[#  11]+0.070*[#  12]+0.012*[#   3]
          +0.012*[#   4]+0.009*[#   5]+0.009*[#   9]+0.008*[#   6]+0.008*[#  10]
          
    |psi|^2 = 0.340
==== e(  15) =    28.22156 eV ==== 
     psi = 0.017*[#   3]+0.017*[#   4]+0.013*[#   6]+0.013*[#  10]+0.004*[#   7]
          +0.004*[#   8]+0.004*[#  11]+0.004*[#  12]+0.004*[#   5]+0.004*[#   9]
          +0.002*[#   1]+0.001*[#   2]
    |psi|^2 = 0.087

 k =   0.3125000000  0.5412658774  0.2909057081
==== e(   1) =     0.62153 eV ==== 
     psi = 0.224*[#   5]+0.224*[#   9]+0.118*[#   7]+0.118*[#   8]+0.118*[#  11]
          +0.118*[#  12]+0.029*[#   3]+0.029*[#   4]+0.007*[#   2]+0.005*[#   6]
          +0.005*[#  10]+0.003*[#   1]
    |psi|^2 = 0.998
==== e(   2) =     1.36053 eV ==== 
     psi = 0.214*[#   5]+0.214*[#   9]+0.129*[#   7]+0.129*[#   8]+0.129*[#  11]
          +0.129*[#  12]+0.022*[#   3]+0.022*[#   4]+0.005*[#   6]+0.005*[#  10]
          
    |psi|^2 = 0.998
==== e(   3) =     2.44130 eV ==== 
     psi = 0.225*[#   7]+0.225*[#   8]+0.225*[#  11]+0.225*[#  12]+0.049*[#   2]
          +0.018*[#   1]+0.014*[#   5]+0.014*[#   9]+0.002*[#   3]+0.002*[#   4]
          
    |psi|^2 = 0.999
==== e(   4) =     6.02881 eV ==== 
     psi = 0.351*[#   6]+0.351*[#  10]+0.119*[#   3]+0.119*[#   4]+0.013*[#   5]
          +0.013*[#   9]+0.008*[#   1]+0.005*[#   7]+0.005*[#   8]+0.005*[#  11]
          +0.005*[#  12]
    |psi|^2 = 0.995
==== e(   5) =     6.85679 eV ==== 
     psi = 0.351*[#   6]+0.351*[#  10]+0.127*[#   3]+0.127*[#   4]+0.008*[#   5]
          +0.008*[#   9]+0.005*[#   7]+0.005*[#   8]+0.005*[#  11]+0.005*[#  12]
          
    |psi|^2 = 0.993
==== e(   6) =    12.12866 eV ==== 
     psi = 0.897*[#   1]+0.057*[#   2]+0.003*[#   3]+0.003*[#   4]+0.002*[#   7]
          +0.002*[#   8]+0.002*[#  11]+0.002*[#  12]+0.002*[#   6]+0.002*[#  10]
          
    |psi|^2 = 0.971
==== e(   7) =    18.26395 eV ==== 
     psi = 0.137*[#   3]+0.137*[#   4]+0.128*[#   2]+0.060*[#   7]+0.060*[#   8]
          +0.060*[#  11]+0.060*[#  12]+0.054*[#   5]+0.054*[#   9]+0.052*[#   6]
          +0.052*[#  10]+0.003*[#   1]
    |psi|^2 = 0.855
==== e(   8) =    18.41553 eV ==== 
     psi = 0.122*[#   5]+0.122*[#   9]+0.110*[#   3]+0.110*[#   4]+0.079*[#   7]
          +0.079*[#   8]+0.079*[#  11]+0.079*[#  12]+0.046*[#   6]+0.046*[#  10]
          
    |psi|^2 = 0.871
==== e(   9) =    19.19363 eV ==== 
     psi = 0.534*[#   2]+0.090*[#   3]+0.090*[#   4]+0.042*[#   1]+0.037*[#   6]
          +0.037*[#  10]+0.011*[#   7]+0.011*[#   8]+0.011*[#  11]+0.011*[#  12]
          +0.007*[#   5]+0.007*[#   9]
    |psi|^2 = 0.890
==== e(  10) =    20.83028 eV ==== 
     psi = 0.207*[#   3]+0.207*[#   4]+0.129*[#   5]+0.129*[#   9]+0.078*[#   6]
          +0.078*[#  10]+0.028*[#   7]+0.028*[#   8]+0.028*[#  11]+0.028*[#  12]
          
    |psi|^2 = 0.939
==== e(  11) =    21.32887 eV ==== 
     psi = 0.168*[#   5]+0.168*[#   9]+0.106*[#   2]+0.082*[#   3]+0.082*[#   4]
          +0.066*[#   7]+0.066*[#   8]+0.066*[#  11]+0.066*[#  12]+0.033*[#   6]
          +0.033*[#  10]+0.005*[#   1]
    |psi|^2 = 0.939
==== e(  12) =    25.53494 eV ==== 
     psi = 0.016*[#   2]+0.006*[#   1]+0.002*[#   3]+0.002*[#   4]+0.001*[#   5]
          +0.001*[#   7]+0.001*[#   8]+0.001*[#   9]+0.001*[#  11]+0.001*[#  12]
          
    |psi|^2 = 0.035
==== e(  13) =    26.78169 eV ==== 
     psi = 0.037*[#   7]+0.037*[#   8]+0.037*[#  11]+0.037*[#  12]+0.015*[#   3]
          +0.015*[#   4]+0.008*[#   6]+0.008*[#  10]+0.003*[#   5]+0.003*[#   9]
          
    |psi|^2 = 0.199
==== e(  14) =    27.22895 eV ==== 
     psi = 0.209*[#   7]+0.209*[#   8]+0.209*[#  11]+0.209*[#  12]+0.007*[#   5]
          +0.007*[#   9]
    |psi|^2 = 0.852
==== e(  15) =    27.77598 eV ==== 
     psi = 0.017*[#   3]+0.017*[#   4]+0.010*[#   6]+0.010*[#  10]+0.004*[#   5]
          +0.004*[#   9]+0.003*[#   7]+0.003*[#   8]+0.003*[#  11]+0.003*[#  12]
          +0.003*[#   1]
    |psi|^2 = 0.081

 k =   0.3125000000  0.5412658774  0.3636321351
==== e(   1) =     0.82863 eV ==== 
     psi = 0.239*[#   5]+0.239*[#   9]+0.123*[#   7]+0.123*[#   8]+0.123*[#  11]
          +0.123*[#  12]+0.009*[#   3]+0.009*[#   4]+0.008*[#   2]+0.002*[#   6]
          +0.002*[#  10]
    |psi|^2 = 0.998
==== e(   2) =     1.55665 eV ==== 
     psi = 0.224*[#   5]+0.224*[#   9]+0.133*[#   7]+0.133*[#   8]+0.133*[#  11]
          +0.133*[#  12]+0.006*[#   3]+0.006*[#   4]+0.002*[#   6]+0.002*[#  10]
          
    |psi|^2 = 0.998
==== e(   3) =     2.57678 eV ==== 
     psi = 0.226*[#   7]+0.226*[#   8]+0.226*[#  11]+0.226*[#  12]+0.057*[#   2]
          +0.015*[#   5]+0.015*[#   9]+0.005*[#   1]
    |psi|^2 = 0.999
==== e(   4) =     5.46296 eV ==== 
     psi = 0.353*[#   6]+0.353*[#  10]+0.132*[#   3]+0.132*[#   4]+0.010*[#   1]
          +0.005*[#   5]+0.005*[#   9]+0.002*[#   7]+0.002*[#   8]+0.002*[#  11]
          +0.002*[#  12]
    |psi|^2 = 0.998
==== e(   5) =     6.30406 eV ==== 
     psi = 0.354*[#   6]+0.354*[#  10]+0.138*[#   3]+0.138*[#   4]+0.003*[#   5]
          +0.003*[#   9]+0.002*[#   7]+0.002*[#   8]+0.002*[#  11]+0.002*[#  12]
          
    |psi|^2 = 0.996
==== e(   6) =    11.57496 eV ==== 
     psi = 0.949*[#   1]+0.013*[#   2]+0.004*[#   3]+0.004*[#   4]+0.002*[#   6]
          +0.002*[#  10]
    |psi|^2 = 0.976
==== e(   7) =    18.80522 eV ==== 
     psi = 0.464*[#   2]+0.084*[#   5]+0.084*[#   9]+0.054*[#   7]+0.054*[#   8]
          +0.054*[#  11]+0.054*[#  12]+0.012*[#   3]+0.012*[#   4]+0.004*[#   1]
          +0.004*[#   6]+0.004*[#  10]
    |psi|^2 = 0.885
==== e(   8) =    19.12935 eV ==== 
     psi = 0.215*[#   5]+0.215*[#   9]+0.102*[#   7]+0.102*[#   8]+0.102*[#  11]
          +0.102*[#  12]+0.025*[#   3]+0.025*[#   4]+0.011*[#   6]+0.011*[#  10]
          
    |psi|^2 = 0.911
==== e(   9) =    20.11972 eV ==== 
     psi = 0.270*[#   2]+0.124*[#   3]+0.124*[#   4]+0.050*[#   6]+0.050*[#  10]
          +0.044*[#   7]+0.044*[#   8]+0.044*[#  11]+0.044*[#  12]+0.038*[#   5]
          +0.038*[#   9]+0.009*[#   1]
    |psi|^2 = 0.881
==== e(  10) =    21.42421 eV ==== 
     psi = 0.189*[#   3]+0.189*[#   4]+0.097*[#   5]+0.097*[#   9]+0.076*[#   6]
          +0.076*[#  10]+0.069*[#   2]+0.039*[#   7]+0.039*[#   8]+0.039*[#  11]
          +0.039*[#  12]
    |psi|^2 = 0.950
==== e(  11) =    21.46549 eV ==== 
     psi = 0.307*[#   3]+0.307*[#   4]+0.122*[#   6]+0.122*[#  10]+0.032*[#   5]
          +0.032*[#   9]+0.006*[#   7]+0.006*[#   8]+0.006*[#  11]+0.006*[#  12]
          
    |psi|^2 = 0.949
==== e(  12) =    26.70355 eV ==== 
     psi = 0.034*[#   7]+0.034*[#   8]+0.034*[#  11]+0.034*[#  12]+0.005*[#   3]
          +0.005*[#   4]+0.002*[#   5]+0.002*[#   9]+0.002*[#   6]+0.002*[#  10]
          
    |psi|^2 = 0.154
==== e(  13) =    26.84395 eV ==== 
     psi = 0.006*[#   3]+0.006*[#   4]+0.005*[#   2]+0.003*[#   5]+0.003*[#   9]
          +0.002*[#   6]+0.002*[#  10]+0.002*[#   7]+0.002*[#   8]+0.002*[#  11]
          +0.002*[#  12]
    |psi|^2 = 0.033
==== e(  14) =    27.20232 eV ==== 
     psi = 0.202*[#   7]+0.202*[#   8]+0.202*[#  11]+0.202*[#  12]+0.004*[#   5]
          +0.004*[#   9]
    |psi|^2 = 0.818
==== e(  15) =    27.90411 eV ==== 
     psi = 0.007*[#   3]+0.007*[#   4]+0.004*[#   6]+0.004*[#  10]+0.004*[#   2]
          +0.004*[#   5]+0.004*[#   9]+0.002*[#   1]+0.002*[#   7]+0.002*[#   8]
          +0.002*[#  11]+0.002*[#  12]
    |psi|^2 = 0.042

 k =   0.3125000000  0.5412658774 -0.4363585621
==== e(   1) =     0.91374 eV ==== 
     psi = 0.245*[#   5]+0.245*[#   9]+0.125*[#   7]+0.125*[#   8]+0.125*[#  11]
          +0.125*[#  12]+0.009*[#   2]
    |psi|^2 = 0.998
==== e(   2) =     1.63676 eV ==== 
     psi = 0.229*[#   5]+0.229*[#   9]+0.135*[#   7]+0.135*[#   8]+0.135*[#  11]
          +0.135*[#  12]
    |psi|^2 = 0.998
==== e(   3) =     2.62908 eV ==== 
     psi = 0.227*[#   7]+0.227*[#   8]+0.227*[#  11]+0.227*[#  12]+0.060*[#   2]
          +0.016*[#   5]+0.016*[#   9]
    |psi|^2 = 0.999
==== e(   4) =     5.25618 eV ==== 
     psi = 0.356*[#   6]+0.356*[#  10]+0.138*[#   3]+0.138*[#   4]+0.010*[#   1]
          
    |psi|^2 = 0.999
==== e(   5) =     6.10356 eV ==== 
     psi = 0.356*[#   6]+0.356*[#  10]+0.142*[#   3]+0.142*[#   4]
    |psi|^2 = 0.997
==== e(   6) =    11.38299 eV ==== 
     psi = 0.965*[#   1]+0.005*[#   3]+0.005*[#   4]+0.002*[#   6]+0.002*[#  10]
          
    |psi|^2 = 0.978
==== e(   7) =    18.90402 eV ==== 
     psi = 0.529*[#   2]+0.083*[#   5]+0.083*[#   9]+0.050*[#   7]+0.050*[#   8]
          +0.050*[#  11]+0.050*[#  12]
    |psi|^2 = 0.893
==== e(   8) =    19.33796 eV ==== 
     psi = 0.247*[#   5]+0.247*[#   9]+0.109*[#   7]+0.109*[#   8]+0.109*[#  11]
          +0.109*[#  12]
    |psi|^2 = 0.929
==== e(   9) =    20.65012 eV ==== 
     psi = 0.287*[#   2]+0.132*[#   5]+0.132*[#   9]+0.087*[#   7]+0.087*[#   8]
          +0.087*[#  11]+0.087*[#  12]
    |psi|^2 = 0.899
==== e(  10) =    21.43969 eV ==== 
     psi = 0.340*[#   3]+0.340*[#   4]+0.136*[#   6]+0.136*[#  10]+0.004*[#   1]
          
    |psi|^2 = 0.957
==== e(  11) =    21.80507 eV ==== 
     psi = 0.345*[#   3]+0.345*[#   4]+0.139*[#   6]+0.139*[#  10]
    |psi|^2 = 0.968
==== e(  12) =    27.01339 eV ==== 

    |psi|^2 = 0.000
==== e(  13) =    27.02515 eV ==== 
     psi = 0.205*[#   7]+0.205*[#   8]+0.205*[#  11]+0.205*[#  12]
    |psi|^2 = 0.819
==== e(  14) =    27.23277 eV ==== 
     psi = 0.001*[#   3]+0.001*[#   4]
    |psi|^2 = 0.004
==== e(  15) =    27.68559 eV ==== 
     psi = 0.009*[#   5]+0.009*[#   9]+0.003*[#   7]+0.003*[#   8]+0.003*[#  11]
          +0.003*[#  12]
    |psi|^2 = 0.029

Lowdin Charges: 

     Atom #   1: total charge =   1.1887, s =  0.2521, 
     Atom #   1: total charge =   1.1887, p =  0.9366, pz=  0.2710, px=  0.3328, py=  0.3328, 
     Atom #   2: total charge =   3.3948, s =  0.7397, 
     Atom #   2: total charge =   3.3948, p =  2.6551, pz=  0.8053, px=  0.9249, py=  0.9249, 
     Atom #   3: total charge =   3.3948, s =  0.7397, 
     Atom #   3: total charge =   3.3948, p =  2.6551, pz=  0.8053, px=  0.9249, py=  0.9249, 
     Spilling Parameter:   0.0027
[macloud2:952584] 23 more processes have sent help message help-common-ofi.txt / package_rank failed
[macloud2:952584] Set MCA parameter "orte_base_help_aggregate" to 0 to see all help / error messages
[macloud2:952584] 23 more processes have sent help message help-mpi-btl-openib.txt / error in device init

     PROJWFC      :      5.14s CPU      5.40s WALL


   This run was terminated on:   1:56:56  28Jun2022            

=------------------------------------------------------------------------------=
   JOB DONE.
=------------------------------------------------------------------------------=
