
     Program Q2R v.7.4.1 starts on 13Mar2026 at  3: 7:36 

     This program is part of the open-source Quantum ESPRESSO suite
     for quantum simulation of materials; please cite
         "P. Giannozzi et al., J. Phys.:Condens. Matter 21 395502 (2009);
         "P. Giannozzi et al., J. Phys.:Condens. Matter 29 465901 (2017);
         "P. Giannozzi et al., J. Chem. Phys. 152 154105 (2020);
          URL http://www.quantum-espresso.org", 
     in publications or presentations arising from this work. More details at
     http://www.quantum-espresso.org/quote

     Parallel version (MPI & OpenMP), running on       1 processor cores
     Number of MPI processes:                 1
     Threads/MPI process:                     1

     MPI processes distributed on     1 nodes
     228621 MiB available memory on the printing compute node when the environment starts
 

  reading grid info from file matdyn0    

  reading force constants from file matdyn1
  nqs=           12
 q=   0.12500000  0.21650635  0.14545285
 q=   0.12500000  0.21650635 -0.14545285
 q=  -0.12500000 -0.21650635 -0.14545285
 q=  -0.12500000  0.21650635  0.14545285
 q=   0.25000000  0.00000000  0.14545285
 q=  -0.25000000  0.00000000  0.14545285
 q=   0.12500000 -0.21650635  0.14545285
 q=   0.25000000  0.00000000 -0.14545285
 q=  -0.25000000  0.00000000 -0.14545285
 q=  -0.12500000  0.21650635 -0.14545285
 q=   0.12500000 -0.21650635 -0.14545285
 q=  -0.12500000 -0.21650635  0.14545285
  reading force constants from file matdyn2
  nqs=            6
 q=   0.12500000  0.21650635 -0.43635856
 q=  -0.12500000  0.21650635 -0.43635856
 q=   0.25000000  0.00000000 -0.43635856
 q=  -0.25000000  0.00000000 -0.43635856
 q=   0.12500000 -0.21650635 -0.43635856
 q=  -0.12500000 -0.21650635  0.43635856
  reading force constants from file matdyn3
  nqs=           24
 q=   0.12500000  0.50518149  0.14545285
 q=   0.37500000  0.36084392  0.14545285
 q=   0.12500000  0.50518149 -0.14545285
 q=   0.37500000  0.36084392 -0.14545285
 q=  -0.37500000  0.36084392  0.14545285
 q=   0.50000000  0.14433757  0.14545285
 q=  -0.50000000 -0.14433757  0.14545285
 q=   0.37500000 -0.36084392  0.14545285
 q=  -0.37500000 -0.36084392 -0.14545285
 q=   0.50000000 -0.14433757 -0.14545285
 q=  -0.50000000  0.14433757 -0.14545285
 q=  -0.12500000  0.50518149 -0.14545285
 q=  -0.12500000 -0.50518149 -0.14545285
 q=   0.12500000 -0.50518149 -0.14545285
 q=   0.12500000 -0.50518149  0.14545285
 q=  -0.12500000  0.50518149  0.14545285
 q=   0.37500000 -0.36084392 -0.14545285
 q=  -0.50000000 -0.14433757 -0.14545285
 q=   0.50000000  0.14433757 -0.14545285
 q=  -0.37500000  0.36084392 -0.14545285
 q=  -0.12500000 -0.50518149  0.14545285
 q=  -0.50000000  0.14433757  0.14545285
 q=   0.50000000 -0.14433757  0.14545285
 q=  -0.37500000 -0.36084392  0.14545285
  reading force constants from file matdyn4
  nqs=           12
 q=   0.12500000  0.50518149 -0.43635856
 q=   0.37500000  0.36084392 -0.43635856
 q=  -0.37500000  0.36084392 -0.43635856
 q=   0.50000000  0.14433757 -0.43635856
 q=  -0.50000000 -0.14433757 -0.43635856
 q=   0.37500000 -0.36084392 -0.43635856
 q=  -0.37500000 -0.36084392  0.43635856
 q=   0.50000000 -0.14433757  0.43635856
 q=  -0.50000000  0.14433757  0.43635856
 q=  -0.12500000  0.50518149  0.43635856
 q=  -0.12500000 -0.50518149  0.43635856
 q=   0.12500000 -0.50518149  0.43635856
  reading force constants from file matdyn5
  nqs=           24
 q=   0.12500000 -0.36084392  0.14545285
 q=   0.12500000 -0.36084392 -0.14545285
 q=  -0.37500000 -0.07216878  0.14545285
 q=  -0.37500000 -0.07216878 -0.14545285
 q=   0.37500000 -0.07216878  0.14545285
 q=  -0.25000000 -0.28867514  0.14545285
 q=   0.25000000  0.28867514  0.14545285
 q=  -0.37500000  0.07216878  0.14545285
 q=   0.37500000  0.07216878 -0.14545285
 q=  -0.25000000  0.28867514 -0.14545285
 q=   0.25000000 -0.28867514 -0.14545285
 q=  -0.12500000 -0.36084392 -0.14545285
 q=  -0.12500000  0.36084392 -0.14545285
 q=   0.12500000  0.36084392 -0.14545285
 q=   0.12500000  0.36084392  0.14545285
 q=  -0.12500000 -0.36084392  0.14545285
 q=  -0.37500000  0.07216878 -0.14545285
 q=   0.25000000  0.28867514 -0.14545285
 q=  -0.25000000 -0.28867514 -0.14545285
 q=   0.37500000 -0.07216878 -0.14545285
 q=  -0.12500000  0.36084392  0.14545285
 q=   0.25000000 -0.28867514  0.14545285
 q=  -0.25000000  0.28867514  0.14545285
 q=   0.37500000  0.07216878  0.14545285
  reading force constants from file matdyn6
  nqs=           12
 q=   0.12500000 -0.36084392 -0.43635856
 q=  -0.37500000 -0.07216878 -0.43635856
 q=   0.37500000 -0.07216878 -0.43635856
 q=  -0.25000000 -0.28867514 -0.43635856
 q=   0.25000000  0.28867514 -0.43635856
 q=  -0.37500000  0.07216878 -0.43635856
 q=   0.37500000  0.07216878  0.43635856
 q=  -0.25000000  0.28867514  0.43635856
 q=   0.25000000 -0.28867514  0.43635856
 q=  -0.12500000 -0.36084392  0.43635856
 q=  -0.12500000  0.36084392  0.43635856
 q=   0.12500000  0.36084392  0.43635856
  reading force constants from file matdyn7
  nqs=           12
 q=   0.12500000 -0.07216878  0.14545285
 q=  -0.12500000  0.07216878  0.14545285
 q=  -0.12500000  0.07216878 -0.14545285
 q=   0.12500000  0.07216878  0.14545285
 q=   0.00000000 -0.14433757  0.14545285
 q=   0.00000000  0.14433757  0.14545285
 q=  -0.12500000 -0.07216878  0.14545285
 q=   0.12500000 -0.07216878 -0.14545285
 q=   0.00000000  0.14433757 -0.14545285
 q=   0.00000000 -0.14433757 -0.14545285
 q=  -0.12500000 -0.07216878 -0.14545285
 q=   0.12500000  0.07216878 -0.14545285
  reading force constants from file matdyn8
  nqs=            6
 q=   0.12500000 -0.07216878 -0.43635856
 q=   0.12500000  0.07216878 -0.43635856
 q=   0.00000000 -0.14433757 -0.43635856
 q=   0.00000000  0.14433757 -0.43635856
 q=  -0.12500000 -0.07216878 -0.43635856
 q=  -0.12500000  0.07216878 -0.43635856
  reading force constants from file matdyn9
  nqs=           12
 q=   0.37500000  0.64951905  0.14545285
 q=  -0.37500000 -0.64951905 -0.14545285
 q=   0.37500000  0.64951905 -0.14545285
 q=  -0.37500000  0.64951905  0.14545285
 q=   0.75000000  0.00000000  0.14545285
 q=  -0.75000000  0.00000000  0.14545285
 q=   0.37500000 -0.64951905  0.14545285
 q=  -0.37500000 -0.64951905  0.14545285
 q=   0.75000000  0.00000000 -0.14545285
 q=  -0.75000000  0.00000000 -0.14545285
 q=  -0.37500000  0.64951905 -0.14545285
 q=   0.37500000 -0.64951905 -0.14545285
  reading force constants from file matdyn10
  nqs=            6
 q=   0.37500000  0.64951905 -0.43635856
 q=  -0.37500000  0.64951905 -0.43635856
 q=   0.75000000  0.00000000 -0.43635856
 q=  -0.75000000  0.00000000 -0.43635856
 q=   0.37500000 -0.64951905 -0.43635856
 q=  -0.37500000 -0.64951905 -0.43635856
  reading force constants from file matdyn11
  nqs=           12
 q=   0.37500000 -0.21650635  0.14545285
 q=   0.37500000 -0.21650635 -0.14545285
 q=  -0.37500000  0.21650635 -0.14545285
 q=   0.37500000  0.21650635  0.14545285
 q=   0.00000000 -0.43301270  0.14545285
 q=   0.00000000  0.43301270  0.14545285
 q=  -0.37500000 -0.21650635  0.14545285
 q=  -0.37500000  0.21650635  0.14545285
 q=   0.00000000  0.43301270 -0.14545285
 q=   0.00000000 -0.43301270 -0.14545285
 q=  -0.37500000 -0.21650635 -0.14545285
 q=   0.37500000  0.21650635 -0.14545285
  reading force constants from file matdyn12
  nqs=            6
 q=   0.37500000 -0.21650635 -0.43635856
 q=   0.37500000  0.21650635 -0.43635856
 q=   0.00000000 -0.43301270 -0.43635856
 q=   0.00000000  0.43301270 -0.43635856
 q=  -0.37500000 -0.21650635 -0.43635856
 q=  -0.37500000  0.21650635 -0.43635856

      q-space grid ok, #points =   48

      fft-check success (sum of imaginary terms < 10^-12)
 
   Preparing gamma for a2F 
 
 
 Broadening =      0.000
      q-space grid ok, #points =   48

      fft-check success (sum of imaginary terms < 10^-12)
 
 Broadening =      0.000
      q-space grid ok, #points =   48

      fft-check success (sum of imaginary terms < 10^-12)
 
 Broadening =      0.000
      q-space grid ok, #points =   48

      fft-check success (sum of imaginary terms < 10^-12)
 
 Broadening =      0.000
      q-space grid ok, #points =   48

      fft-check success (sum of imaginary terms < 10^-12)
 
 Broadening =      0.000
      q-space grid ok, #points =   48

      fft-check success (sum of imaginary terms < 10^-12)
 
 Broadening =      0.000
      q-space grid ok, #points =   48

      fft-check success (sum of imaginary terms < 10^-12)
 
 Broadening =      0.000
      q-space grid ok, #points =   48

      fft-check success (sum of imaginary terms < 10^-12)
 
 Broadening =      0.000
      q-space grid ok, #points =   48

      fft-check success (sum of imaginary terms < 10^-12)
 
 Broadening =      0.000
      q-space grid ok, #points =   48

      fft-check success (sum of imaginary terms < 10^-12)
 
 Broadening =      0.000
      q-space grid ok, #points =   48

      fft-check success (sum of imaginary terms < 10^-12)
 
     Q2R          :      0.26s CPU      0.52s WALL

 
   This run was terminated on:   3: 7:37  13Mar2026            

=------------------------------------------------------------------------------=
   JOB DONE.
=------------------------------------------------------------------------------=
