--------------------------------------------------------------------------
Open MPI's OFI driver detected multiple equidistant NICs from the current process,
but had insufficient information to ensure MPI processes fairly pick a NIC for use.
This may negatively impact performance. A more modern PMIx server is necessary to
resolve this issue.

Note: This message is displayed only when the OFI component's verbosity level is
-357365584 or higher.
--------------------------------------------------------------------------
--------------------------------------------------------------------------
WARNING: There was an error initializing an OpenFabrics device.

  Local host:   macloud1
  Local device: mlx4_0
--------------------------------------------------------------------------

     Program PWSCF v.6.7GPU starts on 29Jun2022 at 11:19:58 

     This program is part of the open-source Quantum ESPRESSO suite
     for quantum simulation of materials; please cite
         "P. Giannozzi et al., J. Phys.:Condens. Matter 21 395502 (2009);
         "P. Giannozzi et al., J. Phys.:Condens. Matter 29 465901 (2017);
         "P. Giannozzi et al., J. Chem. Phys. 152 154105 (2020);
          URL http://www.quantum-espresso.org", 
     in publications or presentations arising from this work. More details at
     http://www.quantum-espresso.org/quote

     Parallel version (MPI & OpenMP), running on      24 processor cores
     Number of MPI processes:                24
     Threads/MPI process:                     1

     MPI processes distributed on     1 nodes
     K-points division:     npool     =      24
     Reading input from twin.in

     Current dimensions of program PWSCF are:
     Max number of different atomic species (ntypx) = 10
     Max number of k-points (npk) =  40000
     Max angular momentum in pseudopotentials (lmaxx) =  3

     Atomic positions and unit cell read from directory:
     ./pwscf.save/
     Atomic positions from file used, from input discarded

     file B.pbe-n-kjpaw_psl.0.1.upf: wavefunction(s)  2P renormalized
     file Mg.pbe-n-kjpaw_psl.0.3.0.upf: wavefunction(s)  3S renormalized
     Message from routine setup:
     using ibrav=0 with symmetry is DISCOURAGED, use correct ibrav instead

     Subspace diagonalization in iterative solution of the eigenvalue problem:
     a serial algorithm will be used


     G-vector sticks info
     --------------------
     sticks:   dense  smooth     PW     G-vecs:    dense   smooth      PW
     Sum         649     313    121                15395     5449    1155

     Using Slab Decomposition



     bravais-lattice index     =            0
     lattice parameter (alat)  =       5.8042  a.u.
     unit-cell volume          =     194.0373 (a.u.)^3
     number of atoms/cell      =            3
     number of atomic types    =            2
     number of electrons       =         8.00
     number of Kohn-Sham states=           15
     kinetic-energy cutoff     =      35.0000  Ry
     charge density cutoff     =     280.0000  Ry
     Exchange-correlation= SLA  PW   PBX  PBC
                           (   1   4   3   4   0   0   0)

     celldm(1)=   5.805736  celldm(2)=   0.000000  celldm(3)=   0.000000
     celldm(4)=   0.000000  celldm(5)=   0.000000  celldm(6)=   0.000000

     crystal axes: (cart. coord. in units of alat)
               a(1) = (   1.000000   0.000000   0.000000 )  
               a(2) = (  -0.500000   0.866025   0.000000 )  
               a(3) = (   0.000000   0.000000   1.145847 )  

     reciprocal axes: (cart. coord. in units 2 pi/alat)
               b(1) = (  1.000000  0.577350 -0.000000 )  
               b(2) = (  0.000000  1.154701  0.000000 )  
               b(3) = (  0.000000 -0.000000  0.872717 )  


     PseudoPot. # 1 for B  read from file:
     ./B.pbe-n-kjpaw_psl.0.1.upf
     MD5 check sum: b4345a612e0782cca08559f453f3313f
     Pseudo is Projector augmented-wave + core cor, Zval =  3.0
     Generated using "atomic" code by A. Dal Corso  v.5.0.99 svn rev. 10869
     Shape of augmentation charge: BESSEL
     Using radial grid of 1059 points,  4 beta functions with: 
                l(1) =   0
                l(2) =   0
                l(3) =   1
                l(4) =   1
     Q(r) pseudized with 0 coefficients 


     PseudoPot. # 2 for Mg read from file:
     ./Mg.pbe-n-kjpaw_psl.0.3.0.upf
     MD5 check sum: 9eaefceb6cf3903db1b93e4e5c6adf9a
     Pseudo is Projector augmented-wave + core cor, Zval =  2.0
     Generated using "atomic" code by A. Dal Corso  v.5.0.99 svn rev. 10869
     Shape of augmentation charge: PSQ
     Using radial grid of 1129 points,  4 beta functions with: 
                l(1) =   0
                l(2) =   0
                l(3) =   1
                l(4) =   1
     Q(r) pseudized with 0 coefficients 


     atomic species   valence    mass     pseudopotential
        B              3.00    10.81100     B ( 1.00)
        Mg             2.00    24.30500     Mg( 1.00)

     24 Sym. Ops., with inversion, found



   Cartesian axes

     site n.     atom                  positions (alat units)
         1           Mg  tau(   1) = (   0.0000000   0.0000000   0.0000000  )
         2           B   tau(   2) = (  -0.0000000   0.5773503   0.5729233  )
         3           B   tau(   3) = (   0.5000000   0.2886751   0.5729233  )

     number of k points=    96
                       cart. coord. in units 2pi/alat
        k(    1) = (   0.0000000   0.0000000   0.0000000), wk =   0.0208333
        k(    2) = (   0.0000000   0.0000000   0.2909057), wk =   0.0208333
        k(    3) = (   0.0000000   0.0000000  -0.2909057), wk =   0.0208333
        k(    4) = (   0.0000000   0.2886751   0.0000000), wk =   0.0208333
        k(    5) = (   0.0000000   0.2886751   0.2909057), wk =   0.0208333
        k(    6) = (   0.0000000   0.2886751  -0.2909057), wk =   0.0208333
        k(    7) = (   0.0000000  -0.5773503   0.0000000), wk =   0.0208333
        k(    8) = (   0.0000000  -0.5773503   0.2909057), wk =   0.0208333
        k(    9) = (   0.0000000  -0.5773503  -0.2909057), wk =   0.0208333
        k(   10) = (   0.0000000  -0.2886751   0.0000000), wk =   0.0208333
        k(   11) = (   0.0000000  -0.2886751   0.2909057), wk =   0.0208333
        k(   12) = (   0.0000000  -0.2886751  -0.2909057), wk =   0.0208333
        k(   13) = (   0.2500000   0.1443376   0.0000000), wk =   0.0208333
        k(   14) = (   0.2500000   0.1443376   0.2909057), wk =   0.0208333
        k(   15) = (   0.2500000   0.1443376  -0.2909057), wk =   0.0208333
        k(   16) = (   0.2500000   0.4330127   0.0000000), wk =   0.0208333
        k(   17) = (   0.2500000   0.4330127   0.2909057), wk =   0.0208333
        k(   18) = (   0.2500000   0.4330127  -0.2909057), wk =   0.0208333
        k(   19) = (   0.2500000  -0.4330127   0.0000000), wk =   0.0208333
        k(   20) = (   0.2500000  -0.4330127   0.2909057), wk =   0.0208333
        k(   21) = (   0.2500000  -0.4330127  -0.2909057), wk =   0.0208333
        k(   22) = (   0.2500000  -0.1443376   0.0000000), wk =   0.0208333
        k(   23) = (   0.2500000  -0.1443376   0.2909057), wk =   0.0208333
        k(   24) = (   0.2500000  -0.1443376  -0.2909057), wk =   0.0208333
        k(   25) = (  -0.5000000  -0.2886751   0.0000000), wk =   0.0208333
        k(   26) = (  -0.5000000  -0.2886751   0.2909057), wk =   0.0208333
        k(   27) = (  -0.5000000  -0.2886751  -0.2909057), wk =   0.0208333
        k(   28) = (  -0.5000000  -0.0000000   0.0000000), wk =   0.0208333
        k(   29) = (  -0.5000000  -0.0000000   0.2909057), wk =   0.0208333
        k(   30) = (  -0.5000000  -0.0000000  -0.2909057), wk =   0.0208333
        k(   31) = (  -0.5000000  -0.8660254   0.0000000), wk =   0.0208333
        k(   32) = (  -0.5000000  -0.8660254   0.2909057), wk =   0.0208333
        k(   33) = (  -0.5000000  -0.8660254  -0.2909057), wk =   0.0208333
        k(   34) = (  -0.5000000  -0.5773503   0.0000000), wk =   0.0208333
        k(   35) = (  -0.5000000  -0.5773503   0.2909057), wk =   0.0208333
        k(   36) = (  -0.5000000  -0.5773503  -0.2909057), wk =   0.0208333
        k(   37) = (  -0.2500000  -0.1443376   0.0000000), wk =   0.0208333
        k(   38) = (  -0.2500000  -0.1443376   0.2909057), wk =   0.0208333
        k(   39) = (  -0.2500000  -0.1443376  -0.2909057), wk =   0.0208333
        k(   40) = (  -0.2500000   0.1443376   0.0000000), wk =   0.0208333
        k(   41) = (  -0.2500000   0.1443376   0.2909057), wk =   0.0208333
        k(   42) = (  -0.2500000   0.1443376  -0.2909057), wk =   0.0208333
        k(   43) = (  -0.2500000  -0.7216878   0.0000000), wk =   0.0208333
        k(   44) = (  -0.2500000  -0.7216878   0.2909057), wk =   0.0208333
        k(   45) = (  -0.2500000  -0.7216878  -0.2909057), wk =   0.0208333
        k(   46) = (  -0.2500000  -0.4330127   0.0000000), wk =   0.0208333
        k(   47) = (  -0.2500000  -0.4330127   0.2909057), wk =   0.0208333
        k(   48) = (  -0.2500000  -0.4330127  -0.2909057), wk =   0.0208333
        k(   49) = (   0.1250000   0.2165064   0.1454529), wk =   0.0208333
        k(   50) = (   0.1250000   0.2165064  -0.4363586), wk =   0.0208333
        k(   51) = (   0.1250000   0.2165064  -0.1454529), wk =   0.0208333
        k(   52) = (   0.1250000   0.5051815   0.1454529), wk =   0.0208333
        k(   53) = (   0.1250000   0.5051815  -0.4363586), wk =   0.0208333
        k(   54) = (   0.1250000   0.5051815  -0.1454529), wk =   0.0208333
        k(   55) = (   0.1250000  -0.3608439   0.1454529), wk =   0.0208333
        k(   56) = (   0.1250000  -0.3608439  -0.4363586), wk =   0.0208333
        k(   57) = (   0.1250000  -0.3608439  -0.1454529), wk =   0.0208333
        k(   58) = (   0.1250000  -0.0721688   0.1454529), wk =   0.0208333
        k(   59) = (   0.1250000  -0.0721688  -0.4363586), wk =   0.0208333
        k(   60) = (   0.1250000  -0.0721688  -0.1454529), wk =   0.0208333
        k(   61) = (   0.3750000   0.3608439   0.1454529), wk =   0.0208333
        k(   62) = (   0.3750000   0.3608439  -0.4363586), wk =   0.0208333
        k(   63) = (   0.3750000   0.3608439  -0.1454529), wk =   0.0208333
        k(   64) = (   0.3750000   0.6495191   0.1454529), wk =   0.0208333
        k(   65) = (   0.3750000   0.6495191  -0.4363586), wk =   0.0208333
        k(   66) = (   0.3750000   0.6495191  -0.1454529), wk =   0.0208333
        k(   67) = (   0.3750000  -0.2165064   0.1454529), wk =   0.0208333
        k(   68) = (   0.3750000  -0.2165064  -0.4363586), wk =   0.0208333
        k(   69) = (   0.3750000  -0.2165064  -0.1454529), wk =   0.0208333
        k(   70) = (   0.3750000   0.0721688   0.1454529), wk =   0.0208333
        k(   71) = (   0.3750000   0.0721688  -0.4363586), wk =   0.0208333
        k(   72) = (   0.3750000   0.0721688  -0.1454529), wk =   0.0208333
        k(   73) = (  -0.3750000  -0.0721688   0.1454529), wk =   0.0208333
        k(   74) = (  -0.3750000  -0.0721688  -0.4363586), wk =   0.0208333
        k(   75) = (  -0.3750000  -0.0721688  -0.1454529), wk =   0.0208333
        k(   76) = (  -0.3750000   0.2165064   0.1454529), wk =   0.0208333
        k(   77) = (  -0.3750000   0.2165064  -0.4363586), wk =   0.0208333
        k(   78) = (  -0.3750000   0.2165064  -0.1454529), wk =   0.0208333
        k(   79) = (  -0.3750000  -0.6495191   0.1454529), wk =   0.0208333
        k(   80) = (  -0.3750000  -0.6495191  -0.4363586), wk =   0.0208333
        k(   81) = (  -0.3750000  -0.6495191  -0.1454529), wk =   0.0208333
        k(   82) = (  -0.3750000  -0.3608439   0.1454529), wk =   0.0208333
        k(   83) = (  -0.3750000  -0.3608439  -0.4363586), wk =   0.0208333
        k(   84) = (  -0.3750000  -0.3608439  -0.1454529), wk =   0.0208333
        k(   85) = (  -0.1250000   0.0721688   0.1454529), wk =   0.0208333
        k(   86) = (  -0.1250000   0.0721688  -0.4363586), wk =   0.0208333
        k(   87) = (  -0.1250000   0.0721688  -0.1454529), wk =   0.0208333
        k(   88) = (  -0.1250000   0.3608439   0.1454529), wk =   0.0208333
        k(   89) = (  -0.1250000   0.3608439  -0.4363586), wk =   0.0208333
        k(   90) = (  -0.1250000   0.3608439  -0.1454529), wk =   0.0208333
        k(   91) = (  -0.1250000  -0.5051815   0.1454529), wk =   0.0208333
        k(   92) = (  -0.1250000  -0.5051815  -0.4363586), wk =   0.0208333
        k(   93) = (  -0.1250000  -0.5051815  -0.1454529), wk =   0.0208333
        k(   94) = (  -0.1250000  -0.2165064   0.1454529), wk =   0.0208333
        k(   95) = (  -0.1250000  -0.2165064  -0.4363586), wk =   0.0208333
        k(   96) = (  -0.1250000  -0.2165064  -0.1454529), wk =   0.0208333

     Dense  grid:    15395 G-vectors     FFT dimensions: (  32,  32,  36)

     Smooth grid:     5449 G-vectors     FFT dimensions: (  24,  24,  25)

     Estimated max dynamical RAM per process >       7.20 MB

     Estimated total dynamical RAM >     172.82 MB

     Check: negative core charge=   -0.000006

     The potential is recalculated from file :
     ./pwscf.save/charge-density

     Starting wfcs are   12 randomized atomic wfcs +    3 random wfcs
     Checking if some PAW data can be deallocated... 

     Band Structure Calculation
     Davidson diagonalization with overlap
At line 106 of file init_us_2_base.f90
Fortran runtime warning: An array temporary was created
At line 106 of file init_us_2_base.f90
Fortran runtime warning: An array temporary was created
At line 106 of file init_us_2_base.f90
Fortran runtime warning: An array temporary was created
At line 106 of file init_us_2_base.f90
Fortran runtime warning: An array temporary was created
At line 106 of file init_us_2_base.f90
Fortran runtime warning: An array temporary was created
At line 106 of file init_us_2_base.f90
Fortran runtime warning: An array temporary was created
At line 106 of file init_us_2_base.f90
Fortran runtime warning: An array temporary was created
At line 106 of file init_us_2_base.f90
Fortran runtime warning: An array temporary was created
At line 106 of file init_us_2_base.f90
Fortran runtime warning: An array temporary was created
At line 106 of file init_us_2_base.f90
Fortran runtime warning: An array temporary was created
At line 106 of file init_us_2_base.f90
Fortran runtime warning: An array temporary was created
At line 106 of file init_us_2_base.f90
Fortran runtime warning: An array temporary was created
At line 106 of file init_us_2_base.f90
Fortran runtime warning: An array temporary was created
At line 106 of file init_us_2_base.f90
Fortran runtime warning: An array temporary was created
At line 106 of file init_us_2_base.f90
Fortran runtime warning: An array temporary was created
At line 106 of file init_us_2_base.f90
Fortran runtime warning: An array temporary was created
At line 106 of file init_us_2_base.f90
Fortran runtime warning: An array temporary was created
At line 106 of file init_us_2_base.f90
Fortran runtime warning: An array temporary was created
At line 106 of file init_us_2_base.f90
Fortran runtime warning: An array temporary was created
At line 106 of file init_us_2_base.f90
Fortran runtime warning: An array temporary was created
At line 106 of file init_us_2_base.f90
Fortran runtime warning: An array temporary was created
At line 106 of file init_us_2_base.f90
Fortran runtime warning: An array temporary was created
At line 106 of file init_us_2_base.f90
Fortran runtime warning: An array temporary was created
At line 106 of file init_us_2_base.f90
Fortran runtime warning: An array temporary was created
At line 1740 of file mp.f90
Fortran runtime warning: An array temporary was created
At line 1740 of file mp.f90
Fortran runtime warning: An array temporary was created
At line 1740 of file mp.f90
Fortran runtime warning: An array temporary was created
At line 1740 of file mp.f90
Fortran runtime warning: An array temporary was created
At line 1740 of file mp.f90
Fortran runtime warning: An array temporary was created
At line 1740 of file mp.f90
Fortran runtime warning: An array temporary was created
At line 1740 of file mp.f90
Fortran runtime warning: An array temporary was created
At line 1740 of file mp.f90
Fortran runtime warning: An array temporary was created
At line 1740 of file mp.f90
Fortran runtime warning: An array temporary was created
At line 1740 of file mp.f90
Fortran runtime warning: An array temporary was created
At line 1740 of file mp.f90
Fortran runtime warning: An array temporary was created
At line 1740 of file mp.f90
Fortran runtime warning: An array temporary was created
At line 1740 of file mp.f90
Fortran runtime warning: An array temporary was created
At line 1740 of file mp.f90
Fortran runtime warning: An array temporary was created
At line 1740 of file mp.f90
Fortran runtime warning: An array temporary was created
At line 1740 of file mp.f90
Fortran runtime warning: An array temporary was created
At line 1740 of file mp.f90
Fortran runtime warning: An array temporary was created
At line 1740 of file mp.f90
Fortran runtime warning: An array temporary was created
At line 1740 of file mp.f90
Fortran runtime warning: An array temporary was created
At line 1740 of file mp.f90
Fortran runtime warning: An array temporary was created
At line 1740 of file mp.f90
Fortran runtime warning: An array temporary was created
At line 1740 of file mp.f90
Fortran runtime warning: An array temporary was created
At line 1740 of file mp.f90
Fortran runtime warning: An array temporary was created
At line 1740 of file mp.f90
Fortran runtime warning: An array temporary was created

     ethr =  1.25E-08,  avg # of iterations = 35.6

     total cpu time spent up to now is        2.9 secs

     End of band structure calculation

          k = 0.0000 0.0000 0.0000 (   709 PWs)   bands (ev):

    -4.7856   4.7169   8.0859   8.0859   9.3182  14.0810  14.0810  15.9413
    17.7543  20.4796  23.9308  23.9308  26.6162  26.6162  26.7807

          k = 0.0000 0.0000 0.2909 (   690 PWs)   bands (ev):

    -3.9413   1.1725   8.3605   8.3605  14.3197  14.3197  15.0532  15.8003
    17.7444  20.4709  20.4709  21.2612  22.9999  22.9999  25.0983

          k = 0.0000 0.0000-0.2909 (   690 PWs)   bands (ev):

    -3.9413   1.1725   8.3605   8.3605  14.3197  14.3197  15.0532  15.8003
    17.7444  20.4709  20.4709  21.2612  22.9999  22.9999  25.0983

          k = 0.0000 0.2887 0.0000 (   681 PWs)   bands (ev):

    -3.6967   4.3221   5.7684   6.5101  10.2984  13.1165  14.5810  17.0309
    17.7950  21.6723  22.0182  22.5173  23.1783  24.4137  27.6449

          k = 0.0000 0.2887 0.2909 (   680 PWs)   bands (ev):

    -2.9073   2.3497   4.7869   6.7418  11.5392  13.6809  16.1211  18.0281
    18.3950  18.7734  19.7079  23.9133  24.5349  27.3246  27.7078

          k = 0.0000 0.2887-0.2909 (   680 PWs)   bands (ev):

    -2.9073   2.3497   4.7869   6.7418  11.5392  13.6809  16.1211  18.0281
    18.3950  18.7734  19.7079  23.9133  24.5349  27.3246  27.7078

          k = 0.0000-0.5774 0.0000 (   676 PWs)   bands (ev):

    -0.8559  -0.1616   5.5309   7.8975  10.7860  11.6276  13.0221  14.8253
    20.3209  21.3711  21.8728  23.1007  25.2856  25.4107  26.7762

          k = 0.0000-0.5774 0.2909 (   670 PWs)   bands (ev):

    -0.1967   0.4723   4.9116   5.7426   7.1851  13.0425  17.1668  17.2752
    18.1844  20.4919  23.4136  24.6990  24.9838  27.5445  29.7075

          k = 0.0000-0.5774-0.2909 (   670 PWs)   bands (ev):

    -0.1967   0.4723   4.9116   5.7426   7.1851  13.0425  17.1668  17.2752
    18.1844  20.4919  23.4136  24.6990  24.9838  27.5445  29.7075

          k = 0.0000-0.2887 0.0000 (   681 PWs)   bands (ev):

    -3.6967   4.3221   5.7684   6.5101  10.2984  13.1165  14.5810  17.0309
    17.7950  21.6723  22.0182  22.5173  23.1783  24.4137  27.6449

          k = 0.0000-0.2887 0.2909 (   680 PWs)   bands (ev):

    -2.9073   2.3497   4.7869   6.7418  11.5392  13.6809  16.1211  18.0281
    18.3950  18.7734  19.7079  23.9133  24.5349  27.3246  27.7078

          k = 0.0000-0.2887-0.2909 (   680 PWs)   bands (ev):

    -2.9073   2.3497   4.7869   6.7418  11.5392  13.6809  16.1211  18.0281
    18.3950  18.7734  19.7079  23.9133  24.5349  27.3246  27.7078

          k = 0.2500 0.1443 0.0000 (   681 PWs)   bands (ev):

    -3.6967   4.3221   5.7684   6.5101  10.2984  13.1165  14.5810  17.0309
    17.7950  21.6723  22.0182  22.5173  23.1783  24.4137  27.6449

          k = 0.2500 0.1443 0.2909 (   680 PWs)   bands (ev):

    -2.9073   2.3497   4.7869   6.7418  11.5392  13.6809  16.1211  18.0281
    18.3950  18.7734  19.7079  23.9133  24.5349  27.3246  27.7078

          k = 0.2500 0.1443-0.2909 (   680 PWs)   bands (ev):

    -2.9073   2.3497   4.7869   6.7418  11.5392  13.6809  16.1211  18.0281
    18.3950  18.7734  19.7079  23.9133  24.5349  27.3246  27.7078

          k = 0.2500 0.4330 0.0000 (   673 PWs)   bands (ev):

    -1.5955   1.9992   3.1104   7.7211  11.4346  12.3899  14.7394  16.0952
    17.4269  19.0969  19.9013  24.4497  25.8229  27.1874  29.6081

          k = 0.2500 0.4330 0.2909 (   678 PWs)   bands (ev):

    -0.9037   2.5530   3.5246   4.5533   8.3547  13.1327  16.8169  17.8007
    18.2361  20.9967  23.4955  25.0245  25.4785  26.2811  28.1827

          k = 0.2500 0.4330-0.2909 (   678 PWs)   bands (ev):

    -0.9037   2.5530   3.5246   4.5533   8.3547  13.1327  16.8169  17.8007
    18.2361  20.9967  23.4955  25.0245  25.4785  26.2811  28.1827

          k = 0.2500-0.4330 0.0000 (   673 PWs)   bands (ev):

    -1.5955   1.9992   3.1104   7.7211  11.4346  12.3899  14.7394  16.0952
    17.4269  19.0969  19.9013  24.4497  25.8229  27.1874  29.6081

          k = 0.2500-0.4330 0.2909 (   678 PWs)   bands (ev):

    -0.9037   2.5530   3.5246   4.5533   8.3547  13.1327  16.8169  17.8007
    18.2361  20.9967  23.4955  25.0245  25.4785  26.2811  28.1827

          k = 0.2500-0.4330-0.2909 (   678 PWs)   bands (ev):

    -0.9037   2.5530   3.5246   4.5533   8.3547  13.1327  16.8169  17.8007
    18.2361  20.9967  23.4955  25.0245  25.4785  26.2811  28.1827

          k = 0.2500-0.1443 0.0000 (   681 PWs)   bands (ev):

    -3.6967   4.3221   5.7684   6.5101  10.2984  13.1165  14.5810  17.0309
    17.7950  21.6723  22.0182  22.5173  23.1783  24.4137  27.6449

          k = 0.2500-0.1443 0.2909 (   680 PWs)   bands (ev):

    -2.9073   2.3497   4.7869   6.7418  11.5392  13.6809  16.1211  18.0281
    18.3950  18.7734  19.7079  23.9133  24.5349  27.3246  27.7078

          k = 0.2500-0.1443-0.2909 (   680 PWs)   bands (ev):

    -2.9073   2.3497   4.7869   6.7418  11.5392  13.6809  16.1211  18.0281
    18.3950  18.7734  19.7079  23.9133  24.5349  27.3246  27.7078

          k =-0.5000-0.2887 0.0000 (   676 PWs)   bands (ev):

    -0.8559  -0.1616   5.5309   7.8975  10.7860  11.6276  13.0221  14.8253
    20.3209  21.3711  21.8728  23.1007  25.2856  25.4107  26.7762

          k =-0.5000-0.2887 0.2909 (   670 PWs)   bands (ev):

    -0.1967   0.4723   4.9116   5.7426   7.1851  13.0425  17.1668  17.2752
    18.1844  20.4919  23.4136  24.6990  24.9838  27.5445  29.7075

          k =-0.5000-0.2887-0.2909 (   670 PWs)   bands (ev):

    -0.1967   0.4723   4.9116   5.7426   7.1851  13.0425  17.1668  17.2752
    18.1844  20.4919  23.4136  24.6990  24.9838  27.5445  29.7075

          k =-0.5000-0.0000 0.0000 (   673 PWs)   bands (ev):

    -1.5955   1.9992   3.1104   7.7211  11.4346  12.3899  14.7394  16.0952
    17.4269  19.0969  19.9013  24.4497  25.8229  27.1874  29.6081

          k =-0.5000-0.0000 0.2909 (   678 PWs)   bands (ev):

    -0.9037   2.5530   3.5246   4.5533   8.3547  13.1327  16.8169  17.8007
    18.2361  20.9967  23.4955  25.0245  25.4785  26.2811  28.1827

          k =-0.5000-0.0000-0.2909 (   678 PWs)   bands (ev):

    -0.9037   2.5530   3.5246   4.5533   8.3547  13.1327  16.8169  17.8007
    18.2361  20.9967  23.4955  25.0245  25.4785  26.2811  28.1827

          k =-0.5000-0.8660 0.0000 (   676 PWs)   bands (ev):

    -0.8559  -0.1616   5.5309   7.8975  10.7860  11.6276  13.0221  14.8253
    20.3209  21.3711  21.8728  23.1007  25.2856  25.4107  26.7762

          k =-0.5000-0.8660 0.2909 (   670 PWs)   bands (ev):

    -0.1967   0.4723   4.9116   5.7426   7.1851  13.0425  17.1668  17.2752
    18.1844  20.4919  23.4136  24.6990  24.9838  27.5445  29.7075

          k =-0.5000-0.8660-0.2909 (   670 PWs)   bands (ev):

    -0.1967   0.4723   4.9116   5.7426   7.1851  13.0425  17.1668  17.2752
    18.1844  20.4919  23.4136  24.6990  24.9838  27.5445  29.7075

          k =-0.5000-0.5774 0.0000 (   673 PWs)   bands (ev):

    -1.5955   1.9992   3.1104   7.7211  11.4346  12.3899  14.7394  16.0952
    17.4269  19.0969  19.9013  24.4497  25.8229  27.1874  29.6081

          k =-0.5000-0.5774 0.2909 (   678 PWs)   bands (ev):

    -0.9037   2.5530   3.5246   4.5533   8.3547  13.1327  16.8169  17.8007
    18.2361  20.9967  23.4955  25.0245  25.4785  26.2811  28.1827

          k =-0.5000-0.5774-0.2909 (   678 PWs)   bands (ev):

    -0.9037   2.5530   3.5246   4.5533   8.3547  13.1327  16.8169  17.8007
    18.2361  20.9967  23.4955  25.0245  25.4785  26.2811  28.1827

          k =-0.2500-0.1443 0.0000 (   681 PWs)   bands (ev):

    -3.6967   4.3221   5.7684   6.5101  10.2984  13.1165  14.5810  17.0309
    17.7950  21.6723  22.0182  22.5173  23.1783  24.4137  27.6449

          k =-0.2500-0.1443 0.2909 (   680 PWs)   bands (ev):

    -2.9073   2.3497   4.7869   6.7418  11.5392  13.6809  16.1211  18.0281
    18.3950  18.7734  19.7079  23.9133  24.5349  27.3246  27.7078

          k =-0.2500-0.1443-0.2909 (   680 PWs)   bands (ev):

    -2.9073   2.3497   4.7869   6.7418  11.5392  13.6809  16.1211  18.0281
    18.3950  18.7734  19.7079  23.9133  24.5349  27.3246  27.7078

          k =-0.2500 0.1443 0.0000 (   681 PWs)   bands (ev):

    -3.6967   4.3221   5.7684   6.5101  10.2984  13.1165  14.5810  17.0309
    17.7950  21.6723  22.0182  22.5173  23.1783  24.4137  27.6449

          k =-0.2500 0.1443 0.2909 (   680 PWs)   bands (ev):

    -2.9073   2.3497   4.7869   6.7418  11.5392  13.6809  16.1211  18.0281
    18.3950  18.7734  19.7079  23.9133  24.5349  27.3246  27.7078

          k =-0.2500 0.1443-0.2909 (   680 PWs)   bands (ev):

    -2.9073   2.3497   4.7869   6.7418  11.5392  13.6809  16.1211  18.0281
    18.3950  18.7734  19.7079  23.9133  24.5349  27.3246  27.7078

          k =-0.2500-0.7217 0.0000 (   673 PWs)   bands (ev):

    -1.5955   1.9992   3.1104   7.7211  11.4346  12.3899  14.7394  16.0952
    17.4269  19.0969  19.9013  24.4497  25.8229  27.1874  29.6081

          k =-0.2500-0.7217 0.2909 (   678 PWs)   bands (ev):

    -0.9037   2.5530   3.5246   4.5533   8.3547  13.1327  16.8169  17.8007
    18.2361  20.9967  23.4955  25.0245  25.4785  26.2811  28.1827

          k =-0.2500-0.7217-0.2909 (   678 PWs)   bands (ev):

    -0.9037   2.5530   3.5246   4.5533   8.3547  13.1327  16.8169  17.8007
    18.2361  20.9967  23.4955  25.0245  25.4785  26.2811  28.1827

          k =-0.2500-0.4330 0.0000 (   673 PWs)   bands (ev):

    -1.5955   1.9992   3.1104   7.7211  11.4346  12.3899  14.7394  16.0952
    17.4269  19.0969  19.9013  24.4497  25.8229  27.1874  29.6081

          k =-0.2500-0.4330 0.2909 (   678 PWs)   bands (ev):

    -0.9037   2.5530   3.5246   4.5533   8.3547  13.1327  16.8169  17.8007
    18.2361  20.9967  23.4955  25.0245  25.4785  26.2811  28.1827

          k =-0.2500-0.4330-0.2909 (   678 PWs)   bands (ev):

    -0.9037   2.5530   3.5246   4.5533   8.3547  13.1327  16.8169  17.8007
    18.2361  20.9967  23.4955  25.0245  25.4785  26.2811  28.1827

          k = 0.1250 0.2165 0.1455 (   679 PWs)   bands (ev):

    -3.7408   4.0413   5.4799   6.3476  12.0822  13.8398  14.5571  15.8796
    18.7056  19.0840  21.9616  23.8144  23.8632  25.4275  27.4678

          k = 0.1250 0.2165-0.4364 (   682 PWs)   bands (ev):

    -2.7568   1.1457   5.9356   6.6474  11.8775  14.9549  16.3499  16.4235
    18.5206  19.9608  20.8214  22.7918  23.2360  25.5723  26.0696

          k = 0.1250 0.2165-0.1455 (   679 PWs)   bands (ev):

    -3.7408   4.0413   5.4799   6.3476  12.0822  13.8398  14.5571  15.8796
    18.7056  19.0840  21.9616  23.8144  23.8632  25.4275  27.4678

          k = 0.1250 0.5052 0.1455 (   674 PWs)   bands (ev):

    -1.1540   0.9720   4.6047   6.5055   9.5495  13.5675  14.6325  16.1078
    17.5868  21.0868  22.0832  24.3884  24.8563  25.8286  28.9789

          k = 0.1250 0.5052-0.4364 (   678 PWs)   bands (ev):

    -0.3454   1.6501   3.8935   4.9668   6.9904  13.7677  14.7869  19.8646
    20.7142  21.0516  23.1299  23.8131  24.6359  28.1063  29.1065

          k = 0.1250 0.5052-0.1455 (   674 PWs)   bands (ev):

    -1.1540   0.9720   4.6047   6.5055   9.5495  13.5675  14.6325  16.1078
    17.5868  21.0868  22.0832  24.3884  24.8563  25.8286  28.9789

          k = 0.1250-0.3608 0.1455 (   678 PWs)   bands (ev):

    -2.6811   3.2634   5.0257   5.2573  11.6306  13.0288  14.3950  16.9027
    17.7773  19.4676  22.4915  23.4018  25.0170  25.9265  28.6011

          k = 0.1250-0.3608-0.4364 (   684 PWs)   bands (ev):

    -1.7752   2.3358   3.8319   5.5062   9.3326  14.6279  15.0106  18.3460
    19.4109  20.5546  22.4294  23.5969  24.2532  27.1149  27.8247

          k = 0.1250-0.3608-0.1455 (   678 PWs)   bands (ev):

    -2.6811   3.2634   5.0257   5.2573  11.6306  13.0288  14.3950  16.9027
    17.7773  19.4676  22.4915  23.4018  25.0170  25.9265  28.6011

          k = 0.1250-0.0722 0.1455 (   687 PWs)   bands (ev):

    -4.2788   3.4916   6.9279   7.5863  11.5857  13.9801  15.2971  15.4941
    17.5788  21.2894  21.4071  22.0224  24.0112  25.8938  27.7064

          k = 0.1250-0.0722-0.4364 (   682 PWs)   bands (ev):

    -3.2517   0.5286   7.2987   7.8539  13.9292  14.3706  15.5756  17.8725
    18.3815  18.8453  19.6451  22.5595  22.8243  23.9429  23.9758

          k = 0.1250-0.0722-0.1455 (   687 PWs)   bands (ev):

    -4.2788   3.4916   6.9279   7.5863  11.5857  13.9801  15.2971  15.4941
    17.5788  21.2894  21.4071  22.0224  24.0112  25.8938  27.7064

          k = 0.3750 0.3608 0.1455 (   674 PWs)   bands (ev):

    -1.1540   0.9720   4.6047   6.5055   9.5495  13.5675  14.6325  16.1078
    17.5868  21.0868  22.0832  24.3884  24.8563  25.8286  28.9789

          k = 0.3750 0.3608-0.4364 (   678 PWs)   bands (ev):

    -0.3454   1.6501   3.8935   4.9668   6.9904  13.7677  14.7869  19.8646
    20.7142  21.0516  23.1299  23.8131  24.6359  28.1063  29.1065

          k = 0.3750 0.3608-0.1455 (   674 PWs)   bands (ev):

    -1.1540   0.9720   4.6047   6.5055   9.5495  13.5675  14.6325  16.1078
    17.5868  21.0868  22.0832  24.3884  24.8563  25.8286  28.9789

          k = 0.3750 0.6495 0.1455 (   675 PWs)   bands (ev):

     0.0469   0.6595   2.6610   7.5260   8.7900  14.3040  15.3094  15.5921
    17.8263  20.6378  21.1584  22.6095  26.8119  26.9587  29.6335

          k = 0.3750 0.6495-0.4364 (   678 PWs)   bands (ev):

     0.7975   1.3487   3.1679   5.0033   6.2590  11.6945  17.5170  20.5975
    20.8191  21.3085  21.7119  25.3867  26.5441  28.0219  28.1181

          k = 0.3750 0.6495-0.1455 (   675 PWs)   bands (ev):

     0.0469   0.6595   2.6610   7.5260   8.7900  14.3040  15.3094  15.5921
    17.8263  20.6378  21.1584  22.6095  26.8119  26.9587  29.6335

          k = 0.3750-0.2165 0.1455 (   681 PWs)   bands (ev):

    -2.1607   1.9432   5.6074   5.8554  10.5142  12.4970  13.9548  17.4168
    19.2252  19.8746  21.1550  23.5395  25.3757  26.0133  28.3155

          k = 0.3750-0.2165-0.4364 (   674 PWs)   bands (ev):

    -1.2898   2.5768   2.8878   6.0801   8.1152  13.6288  16.8835  16.9160
    19.9947  21.4371  21.9602  23.7590  24.1186  28.5405  30.1967

          k = 0.3750-0.2165-0.1455 (   681 PWs)   bands (ev):

    -2.1607   1.9432   5.6074   5.8554  10.5142  12.4970  13.9548  17.4168
    19.2252  19.8746  21.1550  23.5395  25.3757  26.0133  28.3155

          k = 0.3750 0.0722 0.1455 (   678 PWs)   bands (ev):

    -2.6811   3.2634   5.0257   5.2573  11.6306  13.0288  14.3950  16.9027
    17.7773  19.4676  22.4915  23.4018  25.0170  25.9265  28.6011

          k = 0.3750 0.0722-0.4364 (   684 PWs)   bands (ev):

    -1.7752   2.3358   3.8319   5.5062   9.3326  14.6279  15.0106  18.3460
    19.4109  20.5546  22.4294  23.5969  24.2532  27.1149  27.8247

          k = 0.3750 0.0722-0.1455 (   678 PWs)   bands (ev):

    -2.6811   3.2634   5.0257   5.2573  11.6306  13.0288  14.3950  16.9027
    17.7773  19.4676  22.4915  23.4018  25.0170  25.9265  28.6011

          k =-0.3750-0.0722 0.1455 (   678 PWs)   bands (ev):

    -2.6811   3.2634   5.0257   5.2573  11.6306  13.0288  14.3950  16.9027
    17.7773  19.4676  22.4915  23.4018  25.0170  25.9265  28.6011

          k =-0.3750-0.0722-0.4364 (   684 PWs)   bands (ev):

    -1.7752   2.3358   3.8319   5.5062   9.3326  14.6279  15.0106  18.3460
    19.4109  20.5546  22.4294  23.5969  24.2532  27.1149  27.8247

          k =-0.3750-0.0722-0.1455 (   678 PWs)   bands (ev):

    -2.6811   3.2634   5.0257   5.2573  11.6306  13.0288  14.3950  16.9027
    17.7773  19.4676  22.4915  23.4018  25.0170  25.9265  28.6011

          k =-0.3750 0.2165 0.1455 (   681 PWs)   bands (ev):

    -2.1607   1.9432   5.6074   5.8554  10.5142  12.4970  13.9548  17.4168
    19.2252  19.8746  21.1550  23.5395  25.3757  26.0133  28.3155

          k =-0.3750 0.2165-0.4364 (   674 PWs)   bands (ev):

    -1.2898   2.5768   2.8878   6.0801   8.1152  13.6288  16.8835  16.9160
    19.9947  21.4371  21.9602  23.7590  24.1186  28.5405  30.1967

          k =-0.3750 0.2165-0.1455 (   681 PWs)   bands (ev):

    -2.1607   1.9432   5.6074   5.8554  10.5142  12.4970  13.9548  17.4168
    19.2252  19.8746  21.1550  23.5395  25.3757  26.0133  28.3155

          k =-0.3750-0.6495 0.1455 (   675 PWs)   bands (ev):

     0.0469   0.6595   2.6610   7.5260   8.7900  14.3040  15.3094  15.5921
    17.8263  20.6378  21.1584  22.6095  26.8119  26.9587  29.6335

          k =-0.3750-0.6495-0.4364 (   678 PWs)   bands (ev):

     0.7975   1.3487   3.1679   5.0033   6.2590  11.6945  17.5170  20.5975
    20.8191  21.3085  21.7119  25.3867  26.5441  28.0219  28.1181

          k =-0.3750-0.6495-0.1455 (   675 PWs)   bands (ev):

     0.0469   0.6595   2.6610   7.5260   8.7900  14.3040  15.3094  15.5921
    17.8263  20.6378  21.1584  22.6095  26.8119  26.9587  29.6335

          k =-0.3750-0.3608 0.1455 (   674 PWs)   bands (ev):

    -1.1540   0.9720   4.6047   6.5055   9.5495  13.5675  14.6325  16.1078
    17.5868  21.0868  22.0832  24.3884  24.8563  25.8286  28.9789

          k =-0.3750-0.3608-0.4364 (   678 PWs)   bands (ev):

    -0.3454   1.6501   3.8935   4.9668   6.9904  13.7677  14.7869  19.8646
    20.7142  21.0516  23.1299  23.8131  24.6359  28.1063  29.1065

          k =-0.3750-0.3608-0.1455 (   674 PWs)   bands (ev):

    -1.1540   0.9720   4.6047   6.5055   9.5495  13.5675  14.6325  16.1078
    17.5868  21.0868  22.0832  24.3884  24.8563  25.8286  28.9789

          k =-0.1250 0.0722 0.1455 (   687 PWs)   bands (ev):

    -4.2788   3.4916   6.9279   7.5863  11.5857  13.9801  15.2971  15.4941
    17.5788  21.2894  21.4071  22.0224  24.0112  25.8938  27.7064

          k =-0.1250 0.0722-0.4364 (   682 PWs)   bands (ev):

    -3.2517   0.5286   7.2987   7.8539  13.9292  14.3706  15.5756  17.8725
    18.3815  18.8453  19.6451  22.5595  22.8243  23.9429  23.9758

          k =-0.1250 0.0722-0.1455 (   687 PWs)   bands (ev):

    -4.2788   3.4916   6.9279   7.5863  11.5857  13.9801  15.2971  15.4941
    17.5788  21.2894  21.4071  22.0224  24.0112  25.8938  27.7064

          k =-0.1250 0.3608 0.1455 (   678 PWs)   bands (ev):

    -2.6811   3.2634   5.0257   5.2573  11.6306  13.0288  14.3950  16.9027
    17.7773  19.4676  22.4915  23.4018  25.0170  25.9265  28.6011

          k =-0.1250 0.3608-0.4364 (   684 PWs)   bands (ev):

    -1.7752   2.3358   3.8319   5.5062   9.3326  14.6279  15.0106  18.3460
    19.4109  20.5546  22.4294  23.5969  24.2532  27.1149  27.8247

          k =-0.1250 0.3608-0.1455 (   678 PWs)   bands (ev):

    -2.6811   3.2634   5.0257   5.2573  11.6306  13.0288  14.3950  16.9027
    17.7773  19.4676  22.4915  23.4018  25.0170  25.9265  28.6011

          k =-0.1250-0.5052 0.1455 (   674 PWs)   bands (ev):

    -1.1540   0.9720   4.6047   6.5055   9.5495  13.5675  14.6325  16.1078
    17.5868  21.0868  22.0832  24.3884  24.8563  25.8286  28.9789

          k =-0.1250-0.5052-0.4364 (   678 PWs)   bands (ev):

    -0.3454   1.6501   3.8935   4.9668   6.9904  13.7677  14.7869  19.8646
    20.7142  21.0516  23.1299  23.8131  24.6359  28.1063  29.1065

          k =-0.1250-0.5052-0.1455 (   674 PWs)   bands (ev):

    -1.1540   0.9720   4.6047   6.5055   9.5495  13.5675  14.6325  16.1078
    17.5868  21.0868  22.0832  24.3884  24.8563  25.8286  28.9789

          k =-0.1250-0.2165 0.1455 (   679 PWs)   bands (ev):

    -3.7408   4.0413   5.4799   6.3476  12.0822  13.8398  14.5571  15.8796
    18.7056  19.0840  21.9616  23.8144  23.8632  25.4275  27.4678

          k =-0.1250-0.2165-0.4364 (   682 PWs)   bands (ev):

    -2.7568   1.1457   5.9356   6.6474  11.8775  14.9549  16.3499  16.4235
    18.5206  19.9608  20.8214  22.7918  23.2360  25.5723  26.0696

          k =-0.1250-0.2165-0.1455 (   679 PWs)   bands (ev):

    -3.7408   4.0413   5.4799   6.3476  12.0822  13.8398  14.5571  15.8796
    18.7056  19.0840  21.9616  23.8144  23.8632  25.4275  27.4678

     Writing output data file ./pwscf.save/

     init_run     :      1.03s CPU      1.04s WALL (       1 calls)
     electrons    :      1.22s CPU      1.24s WALL (       1 calls)

     Called by init_run:
     wfcinit      :      0.00s CPU      0.00s WALL (       1 calls)
     potinit      :      0.44s CPU      0.45s WALL (       1 calls)
     hinit0       :      0.57s CPU      0.57s WALL (       1 calls)

     Called by electrons:
     c_bands      :      1.22s CPU      1.24s WALL (       1 calls)
     v_of_rho     :      0.03s CPU      0.03s WALL (       1 calls)
     newd         :      0.00s CPU      0.00s WALL (       1 calls)
     PAW_pot      :      0.02s CPU      0.02s WALL (       1 calls)

     Called by c_bands:
     init_us_2    :      0.00s CPU      0.00s WALL (       4 calls)
     cegterg      :      0.77s CPU      0.79s WALL (       9 calls)

     Called by *egterg:
     cdiaghg      :      0.04s CPU      0.04s WALL (     132 calls)
     h_psi        :      0.63s CPU      0.65s WALL (     141 calls)
     s_psi        :      0.01s CPU      0.01s WALL (     141 calls)
     g_psi        :      0.02s CPU      0.02s WALL (     128 calls)

     Called by h_psi:
     h_psi:calbec :      0.02s CPU      0.02s WALL (     141 calls)
     vloc_psi     :      0.60s CPU      0.61s WALL (     141 calls)
     add_vuspsi   :      0.01s CPU      0.01s WALL (     141 calls)

     General routines
     calbec       :      0.02s CPU      0.02s WALL (     141 calls)
     fft          :      0.01s CPU      0.01s WALL (      13 calls)
     ffts         :      0.00s CPU      0.00s WALL (       1 calls)
     fftw         :      0.51s CPU      0.52s WALL (    2780 calls)
     interpolate  :      0.00s CPU      0.00s WALL (       1 calls)
     davcio       :      0.00s CPU      0.00s WALL (       8 calls)

     Parallel routines

     PWSCF        :      2.86s CPU      3.62s WALL


   This run was terminated on:  11:20: 2  29Jun2022            

=------------------------------------------------------------------------------=
   JOB DONE.
=------------------------------------------------------------------------------=
[macloud1:942243] 23 more processes have sent help message help-common-ofi.txt / package_rank failed
[macloud1:942243] Set MCA parameter "orte_base_help_aggregate" to 0 to see all help / error messages
[macloud1:942243] 23 more processes have sent help message help-mpi-btl-openib.txt / error in device init
