
     Program PWSCF v.7.4.1 starts on 15Mar2026 at 23:10:17 

     This program is part of the open-source Quantum ESPRESSO suite
     for quantum simulation of materials; please cite
         "P. Giannozzi et al., J. Phys.:Condens. Matter 21 395502 (2009);
         "P. Giannozzi et al., J. Phys.:Condens. Matter 29 465901 (2017);
         "P. Giannozzi et al., J. Chem. Phys. 152 154105 (2020);
          URL http://www.quantum-espresso.org", 
     in publications or presentations arising from this work. More details at
     http://www.quantum-espresso.org/quote

     Parallel version (MPI & OpenMP), running on      64 processor cores
     Number of MPI processes:                64
     Threads/MPI process:                     1

     MPI processes distributed on     1 nodes
     224995 MiB available memory on the printing compute node when the environment starts
 
     Reading input from twin.in

     Current dimensions of program PWSCF are:
     Max number of different atomic species (ntypx) = 10
     Max number of k-points (npk) =  40000
     Max angular momentum in pseudopotentials (lmaxx) =  4
     file B.pbe-n-kjpaw_psl.0.1.upf: wavefunction(s)  2P renormalized
     file Mg.pbe-n-kjpaw_psl.0.3.0.upf: wavefunction(s)  3S renormalized

     Atomic positions and unit cell read from directory:
     ./pwscf.save/
     Atomic positions from file used, from input discarded
 
     Message from routine setup:
     using ibrav=0 with symmetry is DISCOURAGED, use correct ibrav instead
 
     K-points division:     npool     =      64
     Subspace diagonalization in iterative solution of the eigenvalue problem:
     a serial algorithm will be used

 
     G-vector sticks info
     --------------------
     sticks:   dense  smooth     PW     G-vecs:    dense   smooth      PW
     Sum         649     313    121                15395     5449    1179
 
     Using Slab Decomposition
 


     bravais-lattice index     =            0
     lattice parameter (alat)  =       5.8042  a.u.
     unit-cell volume          =     194.0373 (a.u.)^3
     number of atoms/cell      =            3
     number of atomic types    =            2
     number of electrons       =         8.00
     number of Kohn-Sham states=           15
     kinetic-energy cutoff     =      35.0000  Ry
     charge density cutoff     =     280.0000  Ry
     Exchange-correlation= SLA  PW   PBX  PBC
                           (   1   4   3   4   0   0   0)

     celldm(1)=   5.805736  celldm(2)=   0.000000  celldm(3)=   0.000000
     celldm(4)=   0.000000  celldm(5)=   0.000000  celldm(6)=   0.000000

     crystal axes: (cart. coord. in units of alat)
               a(1) = (   1.000000   0.000000   0.000000 )  
               a(2) = (  -0.500000   0.866025   0.000000 )  
               a(3) = (   0.000000   0.000000   1.145847 )  

     reciprocal axes: (cart. coord. in units 2 pi/alat)
               b(1) = (  1.000000  0.577350  0.000000 )  
               b(2) = (  0.000000  1.154701  0.000000 )  
               b(3) = (  0.000000  0.000000  0.872717 )  


     PseudoPot. # 1 for B  read from file:
     ./B.pbe-n-kjpaw_psl.0.1.upf
     MD5 check sum: b4345a612e0782cca08559f453f3313f
     Pseudo is Projector augmented-wave + core cor, Zval =  3.0
     Generated using "atomic" code by A. Dal Corso  v.5.0.99 svn rev. 10869
     Shape of augmentation charge: BESSEL
     Using radial grid of 1059 points,  4 beta functions with: 
                l(1) =   0
                l(2) =   0
                l(3) =   1
                l(4) =   1
     Q(r) pseudized with 0 coefficients 


     PseudoPot. # 2 for Mg read from file:
     ./Mg.pbe-n-kjpaw_psl.0.3.0.upf
     MD5 check sum: 9eaefceb6cf3903db1b93e4e5c6adf9a
     Pseudo is Projector augmented-wave + core cor, Zval =  2.0
     Generated using "atomic" code by A. Dal Corso  v.5.0.99 svn rev. 10869
     Shape of augmentation charge: PSQ
     Using radial grid of 1129 points,  4 beta functions with: 
                l(1) =   0
                l(2) =   0
                l(3) =   1
                l(4) =   1
     Q(r) pseudized with 0 coefficients 


     atomic species   valence    mass     pseudopotential
     B                 3.00    10.81100     B ( 1.00)
     Mg                2.00    24.30500     Mg( 1.00)

     24 Sym. Ops., with inversion, found



   Cartesian axes

     site n.     atom                  positions (alat units)
         1        Mg     tau(   1) = (   0.0000000   0.0000000   0.0000000  )
         2        B      tau(   2) = (  -0.0000000   0.5773503   0.5729233  )
         3        B      tau(   3) = (   0.5000000   0.2886751   0.5729233  )

     number of k points=    96
                       cart. coord. in units 2pi/alat
        k(    1) = (   0.0000000   0.0000000   0.0000000), wk =   0.0208333
        k(    2) = (   0.0000000   0.0000000   0.2909057), wk =   0.0208333
        k(    3) = (   0.0000000   0.0000000  -0.2909057), wk =   0.0208333
        k(    4) = (   0.0000000   0.2886751   0.0000000), wk =   0.0208333
        k(    5) = (   0.0000000   0.2886751   0.2909057), wk =   0.0208333
        k(    6) = (   0.0000000   0.2886751  -0.2909057), wk =   0.0208333
        k(    7) = (   0.0000000  -0.5773503   0.0000000), wk =   0.0208333
        k(    8) = (   0.0000000  -0.5773503   0.2909057), wk =   0.0208333
        k(    9) = (   0.0000000  -0.5773503  -0.2909057), wk =   0.0208333
        k(   10) = (   0.0000000  -0.2886751   0.0000000), wk =   0.0208333
        k(   11) = (   0.0000000  -0.2886751   0.2909057), wk =   0.0208333
        k(   12) = (   0.0000000  -0.2886751  -0.2909057), wk =   0.0208333
        k(   13) = (   0.2500000   0.1443376   0.0000000), wk =   0.0208333
        k(   14) = (   0.2500000   0.1443376   0.2909057), wk =   0.0208333
        k(   15) = (   0.2500000   0.1443376  -0.2909057), wk =   0.0208333
        k(   16) = (   0.2500000   0.4330127   0.0000000), wk =   0.0208333
        k(   17) = (   0.2500000   0.4330127   0.2909057), wk =   0.0208333
        k(   18) = (   0.2500000   0.4330127  -0.2909057), wk =   0.0208333
        k(   19) = (   0.2500000  -0.4330127   0.0000000), wk =   0.0208333
        k(   20) = (   0.2500000  -0.4330127   0.2909057), wk =   0.0208333
        k(   21) = (   0.2500000  -0.4330127  -0.2909057), wk =   0.0208333
        k(   22) = (   0.2500000  -0.1443376   0.0000000), wk =   0.0208333
        k(   23) = (   0.2500000  -0.1443376   0.2909057), wk =   0.0208333
        k(   24) = (   0.2500000  -0.1443376  -0.2909057), wk =   0.0208333
        k(   25) = (  -0.5000000  -0.2886751   0.0000000), wk =   0.0208333
        k(   26) = (  -0.5000000  -0.2886751   0.2909057), wk =   0.0208333
        k(   27) = (  -0.5000000  -0.2886751  -0.2909057), wk =   0.0208333
        k(   28) = (  -0.5000000  -0.0000000   0.0000000), wk =   0.0208333
        k(   29) = (  -0.5000000  -0.0000000   0.2909057), wk =   0.0208333
        k(   30) = (  -0.5000000  -0.0000000  -0.2909057), wk =   0.0208333
        k(   31) = (  -0.5000000  -0.8660254   0.0000000), wk =   0.0208333
        k(   32) = (  -0.5000000  -0.8660254   0.2909057), wk =   0.0208333
        k(   33) = (  -0.5000000  -0.8660254  -0.2909057), wk =   0.0208333
        k(   34) = (  -0.5000000  -0.5773503   0.0000000), wk =   0.0208333
        k(   35) = (  -0.5000000  -0.5773503   0.2909057), wk =   0.0208333
        k(   36) = (  -0.5000000  -0.5773503  -0.2909057), wk =   0.0208333
        k(   37) = (  -0.2500000  -0.1443376   0.0000000), wk =   0.0208333
        k(   38) = (  -0.2500000  -0.1443376   0.2909057), wk =   0.0208333
        k(   39) = (  -0.2500000  -0.1443376  -0.2909057), wk =   0.0208333
        k(   40) = (  -0.2500000   0.1443376   0.0000000), wk =   0.0208333
        k(   41) = (  -0.2500000   0.1443376   0.2909057), wk =   0.0208333
        k(   42) = (  -0.2500000   0.1443376  -0.2909057), wk =   0.0208333
        k(   43) = (  -0.2500000  -0.7216878   0.0000000), wk =   0.0208333
        k(   44) = (  -0.2500000  -0.7216878   0.2909057), wk =   0.0208333
        k(   45) = (  -0.2500000  -0.7216878  -0.2909057), wk =   0.0208333
        k(   46) = (  -0.2500000  -0.4330127   0.0000000), wk =   0.0208333
        k(   47) = (  -0.2500000  -0.4330127   0.2909057), wk =   0.0208333
        k(   48) = (  -0.2500000  -0.4330127  -0.2909057), wk =   0.0208333
        k(   49) = (   0.0000000   0.0000000   0.1454529), wk =   0.0208333
        k(   50) = (   0.0000000   0.0000000  -0.4363586), wk =   0.0208333
        k(   51) = (   0.0000000   0.0000000  -0.1454529), wk =   0.0208333
        k(   52) = (   0.0000000   0.2886751   0.1454529), wk =   0.0208333
        k(   53) = (   0.0000000   0.2886751  -0.4363586), wk =   0.0208333
        k(   54) = (   0.0000000   0.2886751  -0.1454529), wk =   0.0208333
        k(   55) = (   0.0000000  -0.5773503   0.1454529), wk =   0.0208333
        k(   56) = (   0.0000000  -0.5773503  -0.4363586), wk =   0.0208333
        k(   57) = (   0.0000000  -0.5773503  -0.1454529), wk =   0.0208333
        k(   58) = (   0.0000000  -0.2886751   0.1454529), wk =   0.0208333
        k(   59) = (   0.0000000  -0.2886751  -0.4363586), wk =   0.0208333
        k(   60) = (   0.0000000  -0.2886751  -0.1454529), wk =   0.0208333
        k(   61) = (   0.2500000   0.1443376   0.1454529), wk =   0.0208333
        k(   62) = (   0.2500000   0.1443376  -0.4363586), wk =   0.0208333
        k(   63) = (   0.2500000   0.1443376  -0.1454529), wk =   0.0208333
        k(   64) = (   0.2500000   0.4330127   0.1454529), wk =   0.0208333
        k(   65) = (   0.2500000   0.4330127  -0.4363586), wk =   0.0208333
        k(   66) = (   0.2500000   0.4330127  -0.1454529), wk =   0.0208333
        k(   67) = (   0.2500000  -0.4330127   0.1454529), wk =   0.0208333
        k(   68) = (   0.2500000  -0.4330127  -0.4363586), wk =   0.0208333
        k(   69) = (   0.2500000  -0.4330127  -0.1454529), wk =   0.0208333
        k(   70) = (   0.2500000  -0.1443376   0.1454529), wk =   0.0208333
        k(   71) = (   0.2500000  -0.1443376  -0.4363586), wk =   0.0208333
        k(   72) = (   0.2500000  -0.1443376  -0.1454529), wk =   0.0208333
        k(   73) = (  -0.5000000  -0.2886751   0.1454529), wk =   0.0208333
        k(   74) = (  -0.5000000  -0.2886751  -0.4363586), wk =   0.0208333
        k(   75) = (  -0.5000000  -0.2886751  -0.1454529), wk =   0.0208333
        k(   76) = (  -0.5000000  -0.0000000   0.1454529), wk =   0.0208333
        k(   77) = (  -0.5000000  -0.0000000  -0.4363586), wk =   0.0208333
        k(   78) = (  -0.5000000  -0.0000000  -0.1454529), wk =   0.0208333
        k(   79) = (  -0.5000000  -0.8660254   0.1454529), wk =   0.0208333
        k(   80) = (  -0.5000000  -0.8660254  -0.4363586), wk =   0.0208333
        k(   81) = (  -0.5000000  -0.8660254  -0.1454529), wk =   0.0208333
        k(   82) = (  -0.5000000  -0.5773503   0.1454529), wk =   0.0208333
        k(   83) = (  -0.5000000  -0.5773503  -0.4363586), wk =   0.0208333
        k(   84) = (  -0.5000000  -0.5773503  -0.1454529), wk =   0.0208333
        k(   85) = (  -0.2500000  -0.1443376   0.1454529), wk =   0.0208333
        k(   86) = (  -0.2500000  -0.1443376  -0.4363586), wk =   0.0208333
        k(   87) = (  -0.2500000  -0.1443376  -0.1454529), wk =   0.0208333
        k(   88) = (  -0.2500000   0.1443376   0.1454529), wk =   0.0208333
        k(   89) = (  -0.2500000   0.1443376  -0.4363586), wk =   0.0208333
        k(   90) = (  -0.2500000   0.1443376  -0.1454529), wk =   0.0208333
        k(   91) = (  -0.2500000  -0.7216878   0.1454529), wk =   0.0208333
        k(   92) = (  -0.2500000  -0.7216878  -0.4363586), wk =   0.0208333
        k(   93) = (  -0.2500000  -0.7216878  -0.1454529), wk =   0.0208333
        k(   94) = (  -0.2500000  -0.4330127   0.1454529), wk =   0.0208333
        k(   95) = (  -0.2500000  -0.4330127  -0.4363586), wk =   0.0208333
        k(   96) = (  -0.2500000  -0.4330127  -0.1454529), wk =   0.0208333

     Dense  grid:    15395 G-vectors     FFT dimensions: (  32,  32,  36)

     Smooth grid:     5449 G-vectors     FFT dimensions: (  24,  24,  25)

     Estimated max dynamical RAM per process >       7.20 MB

     Estimated total dynamical RAM >     460.84 MB

     Check: negative core charge=   -0.000006

     The potential is recalculated from file :
     ./pwscf.save/charge-density

     Starting wfcs are   12 randomized atomic wfcs +    3 random wfcs
     Checking if some PAW data can be deallocated... 

     Band Structure Calculation
     Davidson diagonalization with overlap

     ethr =  1.25E-08,  avg # of iterations = 33.3

     total cpu time spent up to now is        0.8 secs

     End of band structure calculation

          k = 0.0000 0.0000 0.0000 (   709 PWs)   bands (ev):

    -4.7856   4.7169   8.0859   8.0859   9.3182  14.0810  14.0810  15.9413
    17.7543  20.4796  23.9308  23.9308  26.6162  26.6162  26.7807

          k = 0.0000 0.0000 0.2909 (   690 PWs)   bands (ev):

    -3.9413   1.1725   8.3605   8.3605  14.3197  14.3197  15.0532  15.8003
    17.7444  20.4709  20.4709  21.2612  22.9999  22.9999  25.0983

          k = 0.0000 0.0000-0.2909 (   690 PWs)   bands (ev):

    -3.9413   1.1725   8.3605   8.3605  14.3197  14.3197  15.0532  15.8003
    17.7444  20.4709  20.4709  21.2612  22.9999  22.9999  25.0983

          k = 0.0000 0.2887 0.0000 (   681 PWs)   bands (ev):

    -3.6967   4.3221   5.7684   6.5101  10.2984  13.1165  14.5810  17.0309
    17.7950  21.6723  22.0182  22.5173  23.1783  24.4137  27.6449

          k = 0.0000 0.2887 0.2909 (   680 PWs)   bands (ev):

    -2.9073   2.3497   4.7869   6.7418  11.5392  13.6809  16.1211  18.0281
    18.3950  18.7734  19.7079  23.9133  24.5349  27.3246  27.7078

          k = 0.0000 0.2887-0.2909 (   680 PWs)   bands (ev):

    -2.9073   2.3497   4.7869   6.7418  11.5392  13.6809  16.1211  18.0281
    18.3950  18.7734  19.7079  23.9133  24.5349  27.3246  27.7078

          k = 0.0000-0.5774 0.0000 (   676 PWs)   bands (ev):

    -0.8559  -0.1616   5.5309   7.8975  10.7860  11.6276  13.0221  14.8253
    20.3209  21.3711  21.8728  23.1007  25.2856  25.4107  26.7762

          k = 0.0000-0.5774 0.2909 (   670 PWs)   bands (ev):

    -0.1967   0.4723   4.9116   5.7426   7.1851  13.0425  17.1668  17.2752
    18.1844  20.4919  23.4136  24.6990  24.9838  27.5445  29.7075

          k = 0.0000-0.5774-0.2909 (   670 PWs)   bands (ev):

    -0.1967   0.4723   4.9116   5.7426   7.1851  13.0425  17.1668  17.2752
    18.1844  20.4919  23.4136  24.6990  24.9838  27.5445  29.7075

          k = 0.0000-0.2887 0.0000 (   681 PWs)   bands (ev):

    -3.6967   4.3221   5.7684   6.5101  10.2984  13.1165  14.5810  17.0309
    17.7950  21.6723  22.0182  22.5173  23.1783  24.4137  27.6449

          k = 0.0000-0.2887 0.2909 (   680 PWs)   bands (ev):

    -2.9073   2.3497   4.7869   6.7418  11.5392  13.6809  16.1211  18.0281
    18.3950  18.7734  19.7079  23.9133  24.5349  27.3246  27.7078

          k = 0.0000-0.2887-0.2909 (   680 PWs)   bands (ev):

    -2.9073   2.3497   4.7869   6.7418  11.5392  13.6809  16.1211  18.0281
    18.3950  18.7734  19.7079  23.9133  24.5349  27.3246  27.7078

          k = 0.2500 0.1443 0.0000 (   681 PWs)   bands (ev):

    -3.6967   4.3221   5.7684   6.5101  10.2984  13.1165  14.5810  17.0309
    17.7950  21.6723  22.0182  22.5173  23.1783  24.4137  27.6449

          k = 0.2500 0.1443 0.2909 (   680 PWs)   bands (ev):

    -2.9073   2.3497   4.7869   6.7418  11.5392  13.6809  16.1211  18.0281
    18.3950  18.7734  19.7079  23.9133  24.5349  27.3246  27.7078

          k = 0.2500 0.1443-0.2909 (   680 PWs)   bands (ev):

    -2.9073   2.3497   4.7869   6.7418  11.5392  13.6809  16.1211  18.0281
    18.3950  18.7734  19.7079  23.9133  24.5349  27.3246  27.7078

          k = 0.2500 0.4330 0.0000 (   673 PWs)   bands (ev):

    -1.5955   1.9992   3.1104   7.7211  11.4346  12.3899  14.7394  16.0952
    17.4269  19.0969  19.9013  24.4497  25.8229  27.1874  29.6081

          k = 0.2500 0.4330 0.2909 (   678 PWs)   bands (ev):

    -0.9037   2.5530   3.5246   4.5533   8.3547  13.1327  16.8169  17.8007
    18.2361  20.9967  23.4955  25.0245  25.4785  26.2811  28.1827

          k = 0.2500 0.4330-0.2909 (   678 PWs)   bands (ev):

    -0.9037   2.5530   3.5246   4.5533   8.3547  13.1327  16.8169  17.8007
    18.2361  20.9967  23.4955  25.0245  25.4785  26.2811  28.1827

          k = 0.2500-0.4330 0.0000 (   673 PWs)   bands (ev):

    -1.5955   1.9992   3.1104   7.7211  11.4346  12.3899  14.7394  16.0952
    17.4269  19.0969  19.9013  24.4497  25.8229  27.1874  29.6081

          k = 0.2500-0.4330 0.2909 (   678 PWs)   bands (ev):

    -0.9037   2.5530   3.5246   4.5533   8.3547  13.1327  16.8169  17.8007
    18.2361  20.9967  23.4955  25.0245  25.4785  26.2811  28.1827

          k = 0.2500-0.4330-0.2909 (   678 PWs)   bands (ev):

    -0.9037   2.5530   3.5246   4.5533   8.3547  13.1327  16.8169  17.8007
    18.2361  20.9967  23.4955  25.0245  25.4785  26.2811  28.1827

          k = 0.2500-0.1443 0.0000 (   681 PWs)   bands (ev):

    -3.6967   4.3221   5.7684   6.5101  10.2984  13.1165  14.5810  17.0309
    17.7950  21.6723  22.0182  22.5173  23.1783  24.4137  27.6449

          k = 0.2500-0.1443 0.2909 (   680 PWs)   bands (ev):

    -2.9073   2.3497   4.7869   6.7418  11.5392  13.6809  16.1211  18.0281
    18.3950  18.7734  19.7079  23.9133  24.5349  27.3246  27.7078

          k = 0.2500-0.1443-0.2909 (   680 PWs)   bands (ev):

    -2.9073   2.3497   4.7869   6.7418  11.5392  13.6809  16.1211  18.0281
    18.3950  18.7734  19.7079  23.9133  24.5349  27.3246  27.7078

          k =-0.5000-0.2887 0.0000 (   676 PWs)   bands (ev):

    -0.8559  -0.1616   5.5309   7.8975  10.7860  11.6276  13.0221  14.8253
    20.3209  21.3711  21.8728  23.1007  25.2856  25.4107  26.7762

          k =-0.5000-0.2887 0.2909 (   670 PWs)   bands (ev):

    -0.1967   0.4723   4.9116   5.7426   7.1851  13.0425  17.1668  17.2752
    18.1844  20.4919  23.4136  24.6990  24.9838  27.5445  29.7075

          k =-0.5000-0.2887-0.2909 (   670 PWs)   bands (ev):

    -0.1967   0.4723   4.9116   5.7426   7.1851  13.0425  17.1668  17.2752
    18.1844  20.4919  23.4136  24.6990  24.9838  27.5445  29.7075

          k =-0.5000-0.0000 0.0000 (   673 PWs)   bands (ev):

    -1.5955   1.9992   3.1104   7.7211  11.4346  12.3899  14.7394  16.0952
    17.4269  19.0969  19.9013  24.4497  25.8229  27.1874  29.6081

          k =-0.5000-0.0000 0.2909 (   678 PWs)   bands (ev):

    -0.9037   2.5530   3.5246   4.5533   8.3547  13.1327  16.8169  17.8007
    18.2361  20.9967  23.4955  25.0245  25.4785  26.2811  28.1827

          k =-0.5000-0.0000-0.2909 (   678 PWs)   bands (ev):

    -0.9037   2.5530   3.5246   4.5533   8.3547  13.1327  16.8169  17.8007
    18.2361  20.9967  23.4955  25.0245  25.4785  26.2811  28.1827

          k =-0.5000-0.8660 0.0000 (   676 PWs)   bands (ev):

    -0.8559  -0.1616   5.5309   7.8975  10.7860  11.6276  13.0221  14.8253
    20.3209  21.3711  21.8728  23.1007  25.2856  25.4107  26.7762

          k =-0.5000-0.8660 0.2909 (   670 PWs)   bands (ev):

    -0.1967   0.4723   4.9116   5.7426   7.1851  13.0425  17.1668  17.2752
    18.1844  20.4919  23.4136  24.6990  24.9838  27.5445  29.7075

          k =-0.5000-0.8660-0.2909 (   670 PWs)   bands (ev):

    -0.1967   0.4723   4.9116   5.7426   7.1851  13.0425  17.1668  17.2752
    18.1844  20.4919  23.4136  24.6990  24.9838  27.5445  29.7075

          k =-0.5000-0.5774 0.0000 (   673 PWs)   bands (ev):

    -1.5955   1.9992   3.1104   7.7211  11.4346  12.3899  14.7394  16.0952
    17.4269  19.0969  19.9013  24.4497  25.8229  27.1874  29.6081

          k =-0.5000-0.5774 0.2909 (   678 PWs)   bands (ev):

    -0.9037   2.5530   3.5246   4.5533   8.3547  13.1327  16.8169  17.8007
    18.2361  20.9967  23.4955  25.0245  25.4785  26.2811  28.1827

          k =-0.5000-0.5774-0.2909 (   678 PWs)   bands (ev):

    -0.9037   2.5530   3.5246   4.5533   8.3547  13.1327  16.8169  17.8007
    18.2361  20.9967  23.4955  25.0245  25.4785  26.2811  28.1827

          k =-0.2500-0.1443 0.0000 (   681 PWs)   bands (ev):

    -3.6967   4.3221   5.7684   6.5101  10.2984  13.1165  14.5810  17.0309
    17.7950  21.6723  22.0182  22.5173  23.1783  24.4137  27.6449

          k =-0.2500-0.1443 0.2909 (   680 PWs)   bands (ev):

    -2.9073   2.3497   4.7869   6.7418  11.5392  13.6809  16.1211  18.0281
    18.3950  18.7734  19.7079  23.9133  24.5349  27.3246  27.7078

          k =-0.2500-0.1443-0.2909 (   680 PWs)   bands (ev):

    -2.9073   2.3497   4.7869   6.7418  11.5392  13.6809  16.1211  18.0281
    18.3950  18.7734  19.7079  23.9133  24.5349  27.3246  27.7078

          k =-0.2500 0.1443 0.0000 (   681 PWs)   bands (ev):

    -3.6967   4.3221   5.7684   6.5101  10.2984  13.1165  14.5810  17.0309
    17.7950  21.6723  22.0182  22.5173  23.1783  24.4137  27.6449

          k =-0.2500 0.1443 0.2909 (   680 PWs)   bands (ev):

    -2.9073   2.3497   4.7869   6.7418  11.5392  13.6809  16.1211  18.0281
    18.3950  18.7734  19.7079  23.9133  24.5349  27.3246  27.7078

          k =-0.2500 0.1443-0.2909 (   680 PWs)   bands (ev):

    -2.9073   2.3497   4.7869   6.7418  11.5392  13.6809  16.1211  18.0281
    18.3950  18.7734  19.7079  23.9133  24.5349  27.3246  27.7078

          k =-0.2500-0.7217 0.0000 (   673 PWs)   bands (ev):

    -1.5955   1.9992   3.1104   7.7211  11.4346  12.3899  14.7394  16.0952
    17.4269  19.0969  19.9013  24.4497  25.8229  27.1874  29.6081

          k =-0.2500-0.7217 0.2909 (   678 PWs)   bands (ev):

    -0.9037   2.5530   3.5246   4.5533   8.3547  13.1327  16.8169  17.8007
    18.2361  20.9967  23.4955  25.0245  25.4785  26.2811  28.1827

          k =-0.2500-0.7217-0.2909 (   678 PWs)   bands (ev):

    -0.9037   2.5530   3.5246   4.5533   8.3547  13.1327  16.8169  17.8007
    18.2361  20.9967  23.4955  25.0245  25.4785  26.2811  28.1827

          k =-0.2500-0.4330 0.0000 (   673 PWs)   bands (ev):

    -1.5955   1.9992   3.1104   7.7211  11.4346  12.3899  14.7394  16.0952
    17.4269  19.0969  19.9013  24.4497  25.8229  27.1874  29.6081

          k =-0.2500-0.4330 0.2909 (   678 PWs)   bands (ev):

    -0.9037   2.5530   3.5246   4.5533   8.3547  13.1327  16.8169  17.8007
    18.2361  20.9967  23.4955  25.0245  25.4785  26.2811  28.1827

          k =-0.2500-0.4330-0.2909 (   678 PWs)   bands (ev):

    -0.9037   2.5530   3.5246   4.5533   8.3547  13.1327  16.8169  17.8007
    18.2361  20.9967  23.4955  25.0245  25.4785  26.2811  28.1827

          k = 0.0000 0.0000 0.1455 (   697 PWs)   bands (ev):

    -4.5497   3.2122   8.1741   8.1741  11.3828  14.1562  14.1562  15.8936
    17.7540  20.7036  22.2690  22.2690  24.6121  24.6121  26.2956

          k = 0.0000 0.0000-0.4364 (   684 PWs)   bands (ev):

    -3.4999   0.2155   8.4616   8.4616  14.4076  14.4076  15.7557  17.6545
    17.7397  19.8033  19.8033  21.6368  22.4190  22.4190  23.4811

          k = 0.0000 0.0000-0.1455 (   697 PWs)   bands (ev):

    -4.5497   3.2122   8.1741   8.1741  11.3828  14.1562  14.1562  15.8936
    17.7540  20.7036  22.2690  22.2690  24.6121  24.6121  26.2956

          k = 0.0000 0.2887 0.1455 (   677 PWs)   bands (ev):

    -3.4736   4.2713   4.5113   6.5843  12.0431  13.1161  13.7450  17.8839
    18.2343  20.1216  20.3787  22.9627  24.5598  26.1848  28.3374

          k = 0.0000 0.2887-0.4364 (   690 PWs)   bands (ev):

    -2.5101   1.4487   4.9711   6.8246  10.9392  13.9994  17.6647  17.7964
    18.2336  19.0230  20.0482  23.4042  24.3817  26.3971  26.7997

          k = 0.0000 0.2887-0.1455 (   677 PWs)   bands (ev):

    -3.4736   4.2713   4.5113   6.5843  12.0431  13.1161  13.7450  17.8839
    18.2343  20.1216  20.3787  22.9627  24.5598  26.1848  28.3374

          k = 0.0000-0.5774 0.1455 (   662 PWs)   bands (ev):

    -0.6675   0.0267   5.5994   6.6607   9.0584  12.3432  14.8161  16.3850
    19.0005  19.5883  23.2030  24.7766  25.2110  25.3864  27.9665

          k = 0.0000-0.5774-0.4364 (   676 PWs)   bands (ev):

     0.1220   0.7477   4.1205   5.8185   6.4053  13.4894  16.5345  16.6638
    20.7513  23.3198  23.3854  23.4673  23.5273  28.5327  28.5390

          k = 0.0000-0.5774-0.1455 (   662 PWs)   bands (ev):

    -0.6675   0.0267   5.5994   6.6607   9.0584  12.3432  14.8161  16.3850
    19.0005  19.5883  23.2030  24.7766  25.2110  25.3864  27.9665

          k = 0.0000-0.2887 0.1455 (   677 PWs)   bands (ev):

    -3.4736   4.2713   4.5113   6.5843  12.0431  13.1161  13.7450  17.8839
    18.2343  20.1216  20.3787  22.9627  24.5598  26.1848  28.3374

          k = 0.0000-0.2887-0.4364 (   690 PWs)   bands (ev):

    -2.5101   1.4487   4.9711   6.8246  10.9392  13.9994  17.6647  17.7964
    18.2336  19.0230  20.0482  23.4042  24.3817  26.3971  26.7997

          k = 0.0000-0.2887-0.1455 (   677 PWs)   bands (ev):

    -3.4736   4.2713   4.5113   6.5843  12.0431  13.1161  13.7450  17.8839
    18.2343  20.1216  20.3787  22.9627  24.5598  26.1848  28.3374

          k = 0.2500 0.1443 0.1455 (   677 PWs)   bands (ev):

    -3.4736   4.2713   4.5113   6.5843  12.0431  13.1161  13.7450  17.8839
    18.2343  20.1216  20.3787  22.9627  24.5598  26.1848  28.3374

          k = 0.2500 0.1443-0.4364 (   690 PWs)   bands (ev):

    -2.5101   1.4487   4.9711   6.8246  10.9392  13.9994  17.6647  17.7964
    18.2336  19.0230  20.0482  23.4042  24.3817  26.3971  26.7997

          k = 0.2500 0.1443-0.1455 (   677 PWs)   bands (ev):

    -3.4736   4.2713   4.5113   6.5843  12.0431  13.1161  13.7450  17.8839
    18.2343  20.1216  20.3787  22.9627  24.5598  26.1848  28.3374

          k = 0.2500 0.4330 0.1455 (   684 PWs)   bands (ev):

    -1.3965   2.1623   3.2397   6.3799  10.0624  14.1966  14.9079  16.2485
    17.1851  19.5180  21.9226  24.6376  25.6386  26.5565  28.4732

          k = 0.2500 0.4330-0.4364 (   674 PWs)   bands (ev):

    -0.5748   2.7987   3.7030   3.7188   7.6358  12.4494  17.2204  18.2374
    20.4825  21.9601  22.9767  25.1523  25.4400  26.2510  27.6778

          k = 0.2500 0.4330-0.1455 (   684 PWs)   bands (ev):

    -1.3965   2.1623   3.2397   6.3799  10.0624  14.1966  14.9079  16.2485
    17.1851  19.5180  21.9226  24.6376  25.6386  26.5565  28.4732

          k = 0.2500-0.4330 0.1455 (   684 PWs)   bands (ev):

    -1.3965   2.1623   3.2397   6.3799  10.0624  14.1966  14.9079  16.2485
    17.1851  19.5180  21.9226  24.6376  25.6386  26.5565  28.4732

          k = 0.2500-0.4330-0.4364 (   674 PWs)   bands (ev):

    -0.5748   2.7987   3.7030   3.7188   7.6358  12.4494  17.2204  18.2374
    20.4825  21.9601  22.9767  25.1523  25.4400  26.2510  27.6778

          k = 0.2500-0.4330-0.1455 (   684 PWs)   bands (ev):

    -1.3965   2.1623   3.2397   6.3799  10.0624  14.1966  14.9079  16.2485
    17.1851  19.5180  21.9226  24.6376  25.6386  26.5565  28.4732

          k = 0.2500-0.1443 0.1455 (   677 PWs)   bands (ev):

    -3.4736   4.2713   4.5113   6.5843  12.0431  13.1161  13.7450  17.8839
    18.2343  20.1216  20.3787  22.9627  24.5598  26.1848  28.3374

          k = 0.2500-0.1443-0.4364 (   690 PWs)   bands (ev):

    -2.5101   1.4487   4.9711   6.8246  10.9392  13.9994  17.6647  17.7964
    18.2336  19.0230  20.0482  23.4042  24.3817  26.3971  26.7997

          k = 0.2500-0.1443-0.1455 (   677 PWs)   bands (ev):

    -3.4736   4.2713   4.5113   6.5843  12.0431  13.1161  13.7450  17.8839
    18.2343  20.1216  20.3787  22.9627  24.5598  26.1848  28.3374

          k =-0.5000-0.2887 0.1455 (   662 PWs)   bands (ev):

    -0.6675   0.0267   5.5994   6.6607   9.0584  12.3432  14.8161  16.3850
    19.0005  19.5883  23.2030  24.7766  25.2110  25.3864  27.9665

          k =-0.5000-0.2887-0.4364 (   676 PWs)   bands (ev):

     0.1220   0.7477   4.1205   5.8185   6.4053  13.4894  16.5345  16.6638
    20.7513  23.3198  23.3854  23.4673  23.5273  28.5327  28.5390

          k =-0.5000-0.2887-0.1455 (   662 PWs)   bands (ev):

    -0.6675   0.0267   5.5994   6.6607   9.0584  12.3432  14.8161  16.3850
    19.0005  19.5883  23.2030  24.7766  25.2110  25.3864  27.9665

          k =-0.5000-0.0000 0.1455 (   684 PWs)   bands (ev):

    -1.3965   2.1623   3.2397   6.3799  10.0624  14.1966  14.9079  16.2485
    17.1851  19.5180  21.9226  24.6376  25.6386  26.5565  28.4732

          k =-0.5000-0.0000-0.4364 (   674 PWs)   bands (ev):

    -0.5748   2.7987   3.7030   3.7188   7.6358  12.4494  17.2204  18.2374
    20.4825  21.9601  22.9767  25.1523  25.4400  26.2510  27.6778

          k =-0.5000-0.0000-0.1455 (   684 PWs)   bands (ev):

    -1.3965   2.1623   3.2397   6.3799  10.0624  14.1966  14.9079  16.2485
    17.1851  19.5180  21.9226  24.6376  25.6386  26.5565  28.4732

          k =-0.5000-0.8660 0.1455 (   662 PWs)   bands (ev):

    -0.6675   0.0267   5.5994   6.6607   9.0584  12.3432  14.8161  16.3850
    19.0005  19.5883  23.2030  24.7766  25.2110  25.3864  27.9665

          k =-0.5000-0.8660-0.4364 (   676 PWs)   bands (ev):

     0.1220   0.7477   4.1205   5.8185   6.4053  13.4894  16.5345  16.6638
    20.7513  23.3198  23.3854  23.4673  23.5273  28.5327  28.5390

          k =-0.5000-0.8660-0.1455 (   662 PWs)   bands (ev):

    -0.6675   0.0267   5.5994   6.6607   9.0584  12.3432  14.8161  16.3850
    19.0005  19.5883  23.2030  24.7766  25.2110  25.3864  27.9665

          k =-0.5000-0.5774 0.1455 (   684 PWs)   bands (ev):

    -1.3965   2.1623   3.2397   6.3799  10.0624  14.1966  14.9079  16.2485
    17.1851  19.5180  21.9226  24.6376  25.6386  26.5565  28.4732

          k =-0.5000-0.5774-0.4364 (   674 PWs)   bands (ev):

    -0.5748   2.7987   3.7030   3.7188   7.6358  12.4494  17.2204  18.2374
    20.4825  21.9601  22.9767  25.1523  25.4400  26.2510  27.6778

          k =-0.5000-0.5774-0.1455 (   684 PWs)   bands (ev):

    -1.3965   2.1623   3.2397   6.3799  10.0624  14.1966  14.9079  16.2485
    17.1851  19.5180  21.9226  24.6376  25.6386  26.5565  28.4732

          k =-0.2500-0.1443 0.1455 (   677 PWs)   bands (ev):

    -3.4736   4.2713   4.5113   6.5843  12.0431  13.1161  13.7450  17.8839
    18.2343  20.1216  20.3787  22.9627  24.5598  26.1848  28.3374

          k =-0.2500-0.1443-0.4364 (   690 PWs)   bands (ev):

    -2.5101   1.4487   4.9711   6.8246  10.9392  13.9994  17.6647  17.7964
    18.2336  19.0230  20.0482  23.4042  24.3817  26.3971  26.7997

          k =-0.2500-0.1443-0.1455 (   677 PWs)   bands (ev):

    -3.4736   4.2713   4.5113   6.5843  12.0431  13.1161  13.7450  17.8839
    18.2343  20.1216  20.3787  22.9627  24.5598  26.1848  28.3374

          k =-0.2500 0.1443 0.1455 (   677 PWs)   bands (ev):

    -3.4736   4.2713   4.5113   6.5843  12.0431  13.1161  13.7450  17.8839
    18.2343  20.1216  20.3787  22.9627  24.5598  26.1848  28.3374

          k =-0.2500 0.1443-0.4364 (   690 PWs)   bands (ev):

    -2.5101   1.4487   4.9711   6.8246  10.9392  13.9994  17.6647  17.7964
    18.2336  19.0230  20.0482  23.4042  24.3817  26.3971  26.7997

          k =-0.2500 0.1443-0.1455 (   677 PWs)   bands (ev):

    -3.4736   4.2713   4.5113   6.5843  12.0431  13.1161  13.7450  17.8839
    18.2343  20.1216  20.3787  22.9627  24.5598  26.1848  28.3374

          k =-0.2500-0.7217 0.1455 (   684 PWs)   bands (ev):

    -1.3965   2.1623   3.2397   6.3799  10.0624  14.1966  14.9079  16.2485
    17.1851  19.5180  21.9226  24.6376  25.6386  26.5565  28.4732

          k =-0.2500-0.7217-0.4364 (   674 PWs)   bands (ev):

    -0.5748   2.7987   3.7030   3.7188   7.6358  12.4494  17.2204  18.2374
    20.4825  21.9601  22.9767  25.1523  25.4400  26.2510  27.6778

          k =-0.2500-0.7217-0.1455 (   684 PWs)   bands (ev):

    -1.3965   2.1623   3.2397   6.3799  10.0624  14.1966  14.9079  16.2485
    17.1851  19.5180  21.9226  24.6376  25.6386  26.5565  28.4732

          k =-0.2500-0.4330 0.1455 (   684 PWs)   bands (ev):

    -1.3965   2.1623   3.2397   6.3799  10.0624  14.1966  14.9079  16.2485
    17.1851  19.5180  21.9226  24.6376  25.6386  26.5565  28.4732

          k =-0.2500-0.4330-0.4364 (   674 PWs)   bands (ev):

    -0.5748   2.7987   3.7030   3.7188   7.6358  12.4494  17.2204  18.2374
    20.4825  21.9601  22.9767  25.1523  25.4400  26.2510  27.6778

          k =-0.2500-0.4330-0.1455 (   684 PWs)   bands (ev):

    -1.3965   2.1623   3.2397   6.3799  10.0624  14.1966  14.9079  16.2485
    17.1851  19.5180  21.9226  24.6376  25.6386  26.5565  28.4732

     Writing all to output data dir ./pwscf.save/ :
     XML data file, pseudopotentials, collected wavefunctions
 
     init_run     :      0.29s CPU      0.34s WALL (       1 calls)
     electrons    :      0.18s CPU      0.19s WALL (       1 calls)

     Called by init_run:
     wfcinit      :      0.00s CPU      0.00s WALL (       1 calls)
     potinit      :      0.08s CPU      0.09s WALL (       1 calls)
     hinit0       :      0.20s CPU      0.21s WALL (       1 calls)

     Called by electrons:
     c_bands      :      0.18s CPU      0.19s WALL (       1 calls)
     v_of_rho     :      0.01s CPU      0.01s WALL (       1 calls)
     newd         :      0.00s CPU      0.00s WALL (       1 calls)
     PAW_pot      :      0.03s CPU      0.03s WALL (       1 calls)

     Called by c_bands:
     init_us_2    :      0.00s CPU      0.00s WALL (       2 calls)
     cegterg      :      0.13s CPU      0.13s WALL (       5 calls)

     Called by *egterg:
     cdiaghg      :      0.02s CPU      0.02s WALL (      71 calls)
     h_psi        :      0.08s CPU      0.09s WALL (      76 calls)
     s_psi        :      0.00s CPU      0.00s WALL (      76 calls)
     g_psi        :      0.00s CPU      0.00s WALL (      69 calls)

     Called by h_psi:
     h_psi:calbec :      0.00s CPU      0.00s WALL (      76 calls)
     vloc_psi     :      0.08s CPU      0.08s WALL (      76 calls)
     add_vuspsi   :      0.00s CPU      0.00s WALL (      76 calls)

     General routines
     calbec       :      0.00s CPU      0.00s WALL (      76 calls)
     fft          :      0.00s CPU      0.01s WALL (      13 calls)
     ffts         :      0.00s CPU      0.00s WALL (       1 calls)
     fftw         :      0.05s CPU      0.06s WALL (    1446 calls)
     interpolate  :      0.00s CPU      0.00s WALL (       1 calls)
     davcio       :      0.00s CPU      0.00s WALL (       4 calls)
 
     Parallel routines
 
     PWSCF        :      0.69s CPU      0.92s WALL

 
   This run was terminated on:  23:10:18  15Mar2026            

=------------------------------------------------------------------------------=
   JOB DONE.
=------------------------------------------------------------------------------=
