
     Program PHONON v.6.7GPU starts on 27Nov2023 at 11:10:44 

     This program is part of the open-source Quantum ESPRESSO suite
     for quantum simulation of materials; please cite
         "P. Giannozzi et al., J. Phys.:Condens. Matter 21 395502 (2009);
         "P. Giannozzi et al., J. Phys.:Condens. Matter 29 465901 (2017);
         "P. Giannozzi et al., J. Chem. Phys. 152 154105 (2020);
          URL http://www.quantum-espresso.org", 
     in publications or presentations arising from this work. More details at
     http://www.quantum-espresso.org/quote

     Parallel version (MPI & OpenMP), running on       8 processor cores
     Number of MPI processes:                 8
     Threads/MPI process:                     1

     MPI processes distributed on     1 nodes
     K-points division:     npool     =       8
     Waiting for input...
     Reading input from standard input

     Reading xml data from directory:

     ./pwscf.save/

     IMPORTANT: XC functional enforced from input :
     Exchange-correlation= PBE
                           (   1   4   3   4   0   0   0)
     Any further DFT definition will be discarded
     Please, verify this is what you really want

 
     G-vector sticks info
     --------------------
     sticks:   dense  smooth     PW     G-vecs:    dense   smooth      PW
     Sum         433     433    151                 5985     5985    1139
 
     Using Slab Decomposition
 
     Reading collected, re-writing distributed wavefunctions


     Dynamical matrices for ( 6, 6, 6)  uniform grid of q-points
     With a half shift
     (  28 q-points):
       N         xq(1)         xq(2)         xq(3) 
       1  -0.083333333   0.083333333   0.083333333
       2  -0.250000000   0.250000000  -0.083333333
       3  -0.416666667   0.416666667  -0.250000000
       4   0.416666667  -0.416666667   0.583333333
       5   0.250000000  -0.250000000   0.416666667
       6   0.083333333  -0.083333333   0.250000000
       7  -0.083333333   0.416666667   0.083333333
       8  -0.250000000   0.583333333  -0.083333333
       9   0.583333333  -0.250000000   0.750000000
      10   0.416666667  -0.083333333   0.583333333
      11   0.250000000   0.083333333   0.416666667
      12  -0.083333333   0.750000000   0.083333333
      13   0.750000000  -0.083333333   0.916666667
      14   0.583333333   0.083333333   0.750000000
      15   0.416666667   0.250000000   0.583333333
      16  -0.083333333  -0.916666667   0.083333333
      17  -0.250000000  -0.750000000  -0.083333333
      18  -0.083333333  -0.583333333   0.083333333
      19  -0.250000000   0.250000000   0.250000000
      20  -0.416666667   0.416666667   0.083333333
      21   0.416666667  -0.416666667   0.916666667
      22   0.250000000  -0.250000000   0.750000000
      23  -0.250000000   0.583333333   0.250000000
      24   0.583333333  -0.250000000   1.083333333
      25   0.416666667  -0.083333333   0.916666667
      26  -0.250000000  -1.083333333   0.250000000
      27  -0.416666667   0.416666667   0.416666667
      28   0.416666667  -0.416666667   1.250000000
     Because shifted q grid is used, q2r will not work !

     Saving dvscf to file. Distribute only q points, not irreducible represetations.

     Calculation of q =   -0.0833333   0.0833333   0.0833333

     Subspace diagonalization in iterative solution of the eigenvalue problem:
     a serial algorithm will be used

     Message from routine kpoint_grid:
     ATTENTION: skip check of k-points equivalence
     [opt_tetra]  Optimized tetrahedron method is used.
 
     G-vector sticks info
     --------------------
     sticks:   dense  smooth     PW     G-vecs:    dense   smooth      PW
     Sum         433     433    151                 5985     5985    1211
 
     Using Slab Decomposition
 

     Title: 
     Electron-phonon matrix                                                     


     bravais-lattice index     =            2
     lattice parameter (alat)  =       9.5194  a.u.
     unit-cell volume          =     215.6591 (a.u.)^3
     number of atoms/cell      =            1
     number of atomic types    =            1
     number of electrons       =        14.00
     number of Kohn-Sham states=           11
     kinetic-energy cutoff     =      35.0000  Ry
     charge density cutoff     =     140.0000  Ry
     Exchange-correlation= PBE
                           (   1   4   3   4   0   0   0)

     celldm(1)=   9.519393  celldm(2)=   0.000000  celldm(3)=   0.000000
     celldm(4)=   0.000000  celldm(5)=   0.000000  celldm(6)=   0.000000

     crystal axes: (cart. coord. in units of alat)
               a(1) = (  -0.500000   0.000000   0.500000 )  
               a(2) = (   0.000000   0.500000   0.500000 )  
               a(3) = (  -0.500000   0.500000   0.000000 )  

     reciprocal axes: (cart. coord. in units 2 pi/alat)
               b(1) = ( -1.000000 -1.000000  1.000000 )  
               b(2) = (  1.000000  1.000000  1.000000 )  
               b(3) = ( -1.000000  1.000000 -1.000000 )  


     PseudoPot. # 1 for Pb read from file:
     ./Pb_ONCV_PBE-1.2.upf
     MD5 check sum: 7f27c247474026287e0dbe0f3167d60b
     Pseudo is Norm-conserving, Zval = 14.0
     Generated using ONCVPSP code by D. R. Hamann
     Using radial grid of  602 points,  8 beta functions with: 
                l(1) =   0
                l(2) =   0
                l(3) =   1
                l(4) =   1
                l(5) =   2
                l(6) =   2
                l(7) =   3
                l(8) =   3

     atomic species   valence    mass     pseudopotential
        Pb            14.00   207.20000     Pb( 1.00)

     48 Sym. Ops., with inversion, found



   Cartesian axes

     site n.     atom                  positions (alat units)
         1           Pb  tau(   1) = (   0.0000000   0.0000000   0.0000000  )

     number of k points=   432 (tetrahedron method)

     Number of k-points >= 100: set verbosity='high' to print them.

     Dense  grid:     5985 G-vectors     FFT dimensions: (  25,  25,  25)

     Estimated max dynamical RAM per process >       5.79 MB

     Estimated total dynamical RAM >      46.33 MB

     The potential is recalculated from file :
     ./_ph0/pwscf.q_1/pwscf.save/charge-density

     Starting wfcs are    0 atomic +   11 random wfcs

     Band Structure Calculation
     Davidson diagonalization with overlap

     ethr =  7.14E-11,  avg # of iterations = 20.9

     total cpu time spent up to now is        6.3 secs

     End of band structure calculation

     Number of k-points >= 100: set verbosity='high' to print the bands.

     the Fermi energy is    11.5662 ev

     Writing output data file ./_ph0/pwscf.q_1/pwscf.save/
 
     [dfpt_tetra]  Dos(E_F)[/Ry] :   0.9223183E+01

     Electron-phonon matrix                                                     

     bravais-lattice index     =            2
     lattice parameter (alat)  =       9.5194  a.u.
     unit-cell volume          =     215.6591 (a.u.)^3
     number of atoms/cell      =            1
     number of atomic types    =            1
     kinetic-energy cut-off    =      35.0000  Ry
     charge density cut-off    =     140.0000  Ry
     convergence threshold     =      1.0E-12
     beta                      =       0.7000
     number of iterations used =            4
     Exchange-correlation= PBE
                           (   1   4   3   4   0   0   0)


     celldm(1)=    9.51939  celldm(2)=    0.00000  celldm(3)=    0.00000
     celldm(4)=    0.00000  celldm(5)=    0.00000  celldm(6)=    0.00000

     crystal axes: (cart. coord. in units of alat)
               a(1) = ( -0.5000  0.0000  0.5000 )  
               a(2) = (  0.0000  0.5000  0.5000 )  
               a(3) = ( -0.5000  0.5000  0.0000 )  

     reciprocal axes: (cart. coord. in units 2 pi/alat)
               b(1) = ( -1.0000 -1.0000  1.0000 )  
               b(2) = (  1.0000  1.0000  1.0000 )  
               b(3) = ( -1.0000  1.0000 -1.0000 )  


     Atoms inside the unit cell: 

     Cartesian axes

     site n.  atom      mass           positions (alat units)
        1     Pb 207.2000   tau(    1) = (    0.00000    0.00000    0.00000  )

     Computing dynamical matrix for 
                    q = (  -0.0833333   0.0833333   0.0833333 )
 
      6 Sym.Ops. (no q -> -q+G )


     G cutoff =  321.3563  (   5985 G-vectors)     FFT grid: ( 25, 25, 25)
     number of k points=   432

     PseudoPot. # 1 for Pb read from file:
     ./Pb_ONCV_PBE-1.2.upf
     MD5 check sum: 7f27c247474026287e0dbe0f3167d60b
     Pseudo is Norm-conserving, Zval = 14.0
     Generated using ONCVPSP code by D. R. Hamann
     Using radial grid of  602 points,  8 beta functions with: 
                l(1) =   0
                l(2) =   0
                l(3) =   1
                l(4) =   1
                l(5) =   2
                l(6) =   2
                l(7) =   3
                l(8) =   3


     Atomic displacements:
     There are    2 irreducible representations

     Representation     1      1 modes -  To be done

     Representation     2      2 modes -  To be done


     PHONON       :      4.98s CPU     12.24s WALL

     Reading dVscf from file dv
     Reading dynamics matrix from file matdyn1

     Diagonalizing the dynamical matrix

     q = (   -0.083333333   0.083333333   0.083333333 ) 

 **************************************************************************
     freq (    1) =       0.533894 [THz] =      17.808781 [cm-1]
     freq (    2) =       0.533894 [THz] =      17.808781 [cm-1]
     freq (    3) =       0.818310 [THz] =      27.295877 [cm-1]
 **************************************************************************
 [elph_scdft]  write elph.dat with symmetries (only on Fermi surfaces)
 [elph_scdft]   Lowest band which contains FS :            7
 [elph_scdft]  Highest band which contains FS :            8
 [elph_scdft]    # of bands which contains FS :            2

     Calculation of q =   -0.2500000   0.2500000  -0.0833333
     Message from routine kpoint_grid:
     ATTENTION: skip check of k-points equivalence
     [opt_tetra]  Optimized tetrahedron method is used.
 
     G-vector sticks info
     --------------------
     sticks:   dense  smooth     PW     G-vecs:    dense   smooth      PW
     Sum         433     433    151                 5985     5985    1243
 
     Using Slab Decomposition
 

     Title: 
     Electron-phonon matrix                                                     


     bravais-lattice index     =            2
     lattice parameter (alat)  =       9.5194  a.u.
     unit-cell volume          =     215.6591 (a.u.)^3
     number of atoms/cell      =            1
     number of atomic types    =            1
     number of electrons       =        14.00
     number of Kohn-Sham states=           11
     kinetic-energy cutoff     =      35.0000  Ry
     charge density cutoff     =     140.0000  Ry
     Exchange-correlation= PBE
                           (   1   4   3   4   0   0   0)

     celldm(1)=   9.519393  celldm(2)=   0.000000  celldm(3)=   0.000000
     celldm(4)=   0.000000  celldm(5)=   0.000000  celldm(6)=   0.000000

     crystal axes: (cart. coord. in units of alat)
               a(1) = (  -0.500000   0.000000   0.500000 )  
               a(2) = (   0.000000   0.500000   0.500000 )  
               a(3) = (  -0.500000   0.500000   0.000000 )  

     reciprocal axes: (cart. coord. in units 2 pi/alat)
               b(1) = ( -1.000000 -1.000000  1.000000 )  
               b(2) = (  1.000000  1.000000  1.000000 )  
               b(3) = ( -1.000000  1.000000 -1.000000 )  


     PseudoPot. # 1 for Pb read from file:
     ./Pb_ONCV_PBE-1.2.upf
     MD5 check sum: 7f27c247474026287e0dbe0f3167d60b
     Pseudo is Norm-conserving, Zval = 14.0
     Generated using ONCVPSP code by D. R. Hamann
     Using radial grid of  602 points,  8 beta functions with: 
                l(1) =   0
                l(2) =   0
                l(3) =   1
                l(4) =   1
                l(5) =   2
                l(6) =   2
                l(7) =   3
                l(8) =   3

     atomic species   valence    mass     pseudopotential
        Pb            14.00   207.20000     Pb( 1.00)

     48 Sym. Ops., with inversion, found



   Cartesian axes

     site n.     atom                  positions (alat units)
         1           Pb  tau(   1) = (   0.0000000   0.0000000   0.0000000  )

     number of k points=   432 (tetrahedron method)

     Number of k-points >= 100: set verbosity='high' to print them.

     Dense  grid:     5985 G-vectors     FFT dimensions: (  25,  25,  25)

     Estimated max dynamical RAM per process >       5.82 MB

     Estimated total dynamical RAM >      46.56 MB

     The potential is recalculated from file :
     ./_ph0/pwscf.q_2/pwscf.save/charge-density

     Starting wfcs are    0 atomic +   11 random wfcs

     Band Structure Calculation
     Davidson diagonalization with overlap

     ethr =  7.14E-11,  avg # of iterations = 20.9

     total cpu time spent up to now is       10.9 secs

     End of band structure calculation

     Number of k-points >= 100: set verbosity='high' to print the bands.

     the Fermi energy is    11.5662 ev

     Writing output data file ./_ph0/pwscf.q_2/pwscf.save/
 
     [dfpt_tetra]  Dos(E_F)[/Ry] :   0.9223183E+01

     Electron-phonon matrix                                                     

     bravais-lattice index     =            2
     lattice parameter (alat)  =       9.5194  a.u.
     unit-cell volume          =     215.6591 (a.u.)^3
     number of atoms/cell      =            1
     number of atomic types    =            1
     kinetic-energy cut-off    =      35.0000  Ry
     charge density cut-off    =     140.0000  Ry
     convergence threshold     =      1.0E-12
     beta                      =       0.7000
     number of iterations used =            4
     Exchange-correlation= PBE
                           (   1   4   3   4   0   0   0)


     celldm(1)=    9.51939  celldm(2)=    0.00000  celldm(3)=    0.00000
     celldm(4)=    0.00000  celldm(5)=    0.00000  celldm(6)=    0.00000

     crystal axes: (cart. coord. in units of alat)
               a(1) = ( -0.5000  0.0000  0.5000 )  
               a(2) = (  0.0000  0.5000  0.5000 )  
               a(3) = ( -0.5000  0.5000  0.0000 )  

     reciprocal axes: (cart. coord. in units 2 pi/alat)
               b(1) = ( -1.0000 -1.0000  1.0000 )  
               b(2) = (  1.0000  1.0000  1.0000 )  
               b(3) = ( -1.0000  1.0000 -1.0000 )  


     Atoms inside the unit cell: 

     Cartesian axes

     site n.  atom      mass           positions (alat units)
        1     Pb 207.2000   tau(    1) = (    0.00000    0.00000    0.00000  )

     Computing dynamical matrix for 
                    q = (  -0.2500000   0.2500000  -0.0833333 )
 
      2 Sym.Ops. (no q -> -q+G )


     G cutoff =  321.3563  (   5985 G-vectors)     FFT grid: ( 25, 25, 25)
     number of k points=   432

     PseudoPot. # 1 for Pb read from file:
     ./Pb_ONCV_PBE-1.2.upf
     MD5 check sum: 7f27c247474026287e0dbe0f3167d60b
     Pseudo is Norm-conserving, Zval = 14.0
     Generated using ONCVPSP code by D. R. Hamann
     Using radial grid of  602 points,  8 beta functions with: 
                l(1) =   0
                l(2) =   0
                l(3) =   1
                l(4) =   1
                l(5) =   2
                l(6) =   2
                l(7) =   3
                l(8) =   3


     Atomic displacements:
     There are    3 irreducible representations

     Representation     1      1 modes -  To be done

     Representation     2      1 modes -  To be done

     Representation     3      1 modes -  To be done


     PHONON       :      9.88s CPU     17.93s WALL

     Reading dVscf from file dv
     Reading dynamics matrix from file matdyn2

     Diagonalizing the dynamical matrix

     q = (   -0.250000000   0.250000000  -0.083333333 ) 

 **************************************************************************
     freq (    1) =       0.723362 [THz] =      24.128748 [cm-1]
     freq (    2) =       0.917751 [THz] =      30.612882 [cm-1]
     freq (    3) =       1.533424 [THz] =      51.149518 [cm-1]
 **************************************************************************
 [elph_scdft]  write elph.dat with symmetries (only on Fermi surfaces)
 [elph_scdft]   Lowest band which contains FS :            7
 [elph_scdft]  Highest band which contains FS :            8
 [elph_scdft]    # of bands which contains FS :            2

     Calculation of q =   -0.4166667   0.4166667  -0.2500000
     Message from routine kpoint_grid:
     ATTENTION: skip check of k-points equivalence
     [opt_tetra]  Optimized tetrahedron method is used.
 
     G-vector sticks info
     --------------------
     sticks:   dense  smooth     PW     G-vecs:    dense   smooth      PW
     Sum         433     433    163                 5985     5985    1363
 
     Using Slab Decomposition
 

     Title: 
     Electron-phonon matrix                                                     


     bravais-lattice index     =            2
     lattice parameter (alat)  =       9.5194  a.u.
     unit-cell volume          =     215.6591 (a.u.)^3
     number of atoms/cell      =            1
     number of atomic types    =            1
     number of electrons       =        14.00
     number of Kohn-Sham states=           11
     kinetic-energy cutoff     =      35.0000  Ry
     charge density cutoff     =     140.0000  Ry
     Exchange-correlation= PBE
                           (   1   4   3   4   0   0   0)

     celldm(1)=   9.519393  celldm(2)=   0.000000  celldm(3)=   0.000000
     celldm(4)=   0.000000  celldm(5)=   0.000000  celldm(6)=   0.000000

     crystal axes: (cart. coord. in units of alat)
               a(1) = (  -0.500000   0.000000   0.500000 )  
               a(2) = (   0.000000   0.500000   0.500000 )  
               a(3) = (  -0.500000   0.500000   0.000000 )  

     reciprocal axes: (cart. coord. in units 2 pi/alat)
               b(1) = ( -1.000000 -1.000000  1.000000 )  
               b(2) = (  1.000000  1.000000  1.000000 )  
               b(3) = ( -1.000000  1.000000 -1.000000 )  


     PseudoPot. # 1 for Pb read from file:
     ./Pb_ONCV_PBE-1.2.upf
     MD5 check sum: 7f27c247474026287e0dbe0f3167d60b
     Pseudo is Norm-conserving, Zval = 14.0
     Generated using ONCVPSP code by D. R. Hamann
     Using radial grid of  602 points,  8 beta functions with: 
                l(1) =   0
                l(2) =   0
                l(3) =   1
                l(4) =   1
                l(5) =   2
                l(6) =   2
                l(7) =   3
                l(8) =   3

     atomic species   valence    mass     pseudopotential
        Pb            14.00   207.20000     Pb( 1.00)

     48 Sym. Ops., with inversion, found



   Cartesian axes

     site n.     atom                  positions (alat units)
         1           Pb  tau(   1) = (   0.0000000   0.0000000   0.0000000  )

     number of k points=   432 (tetrahedron method)

     Number of k-points >= 100: set verbosity='high' to print them.

     Dense  grid:     5985 G-vectors     FFT dimensions: (  25,  25,  25)

     Estimated max dynamical RAM per process >       5.85 MB

     Estimated total dynamical RAM >      46.84 MB

     The potential is recalculated from file :
     ./_ph0/pwscf.q_3/pwscf.save/charge-density

     Starting wfcs are    0 atomic +   11 random wfcs

     Band Structure Calculation
     Davidson diagonalization with overlap

     ethr =  7.14E-11,  avg # of iterations = 20.8

     total cpu time spent up to now is       15.4 secs

     End of band structure calculation

     Number of k-points >= 100: set verbosity='high' to print the bands.

     the Fermi energy is    11.5662 ev

     Writing output data file ./_ph0/pwscf.q_3/pwscf.save/
 
     [dfpt_tetra]  Dos(E_F)[/Ry] :   0.9223183E+01

     Electron-phonon matrix                                                     

     bravais-lattice index     =            2
     lattice parameter (alat)  =       9.5194  a.u.
     unit-cell volume          =     215.6591 (a.u.)^3
     number of atoms/cell      =            1
     number of atomic types    =            1
     kinetic-energy cut-off    =      35.0000  Ry
     charge density cut-off    =     140.0000  Ry
     convergence threshold     =      1.0E-12
     beta                      =       0.7000
     number of iterations used =            4
     Exchange-correlation= PBE
                           (   1   4   3   4   0   0   0)


     celldm(1)=    9.51939  celldm(2)=    0.00000  celldm(3)=    0.00000
     celldm(4)=    0.00000  celldm(5)=    0.00000  celldm(6)=    0.00000

     crystal axes: (cart. coord. in units of alat)
               a(1) = ( -0.5000  0.0000  0.5000 )  
               a(2) = (  0.0000  0.5000  0.5000 )  
               a(3) = ( -0.5000  0.5000  0.0000 )  

     reciprocal axes: (cart. coord. in units 2 pi/alat)
               b(1) = ( -1.0000 -1.0000  1.0000 )  
               b(2) = (  1.0000  1.0000  1.0000 )  
               b(3) = ( -1.0000  1.0000 -1.0000 )  


     Atoms inside the unit cell: 

     Cartesian axes

     site n.  atom      mass           positions (alat units)
        1     Pb 207.2000   tau(    1) = (    0.00000    0.00000    0.00000  )

     Computing dynamical matrix for 
                    q = (  -0.4166667   0.4166667  -0.2500000 )
 
      2 Sym.Ops. (no q -> -q+G )


     G cutoff =  321.3563  (   5985 G-vectors)     FFT grid: ( 25, 25, 25)
     number of k points=   432

     PseudoPot. # 1 for Pb read from file:
     ./Pb_ONCV_PBE-1.2.upf
     MD5 check sum: 7f27c247474026287e0dbe0f3167d60b
     Pseudo is Norm-conserving, Zval = 14.0
     Generated using ONCVPSP code by D. R. Hamann
     Using radial grid of  602 points,  8 beta functions with: 
                l(1) =   0
                l(2) =   0
                l(3) =   1
                l(4) =   1
                l(5) =   2
                l(6) =   2
                l(7) =   3
                l(8) =   3


     Atomic displacements:
     There are    3 irreducible representations

     Representation     1      1 modes -  To be done

     Representation     2      1 modes -  To be done

     Representation     3      1 modes -  To be done


     PHONON       :     14.74s CPU     22.96s WALL

     Reading dVscf from file dv
     Reading dynamics matrix from file matdyn3

     Diagonalizing the dynamical matrix

     q = (   -0.416666667   0.416666667  -0.250000000 ) 

 **************************************************************************
     freq (    1) =       1.031023 [THz] =      34.391224 [cm-1]
     freq (    2) =       1.037931 [THz] =      34.621648 [cm-1]
     freq (    3) =       1.884971 [THz] =      62.875863 [cm-1]
 **************************************************************************
 [elph_scdft]  write elph.dat with symmetries (only on Fermi surfaces)
 [elph_scdft]   Lowest band which contains FS :            7
 [elph_scdft]  Highest band which contains FS :            8
 [elph_scdft]    # of bands which contains FS :            2

     Calculation of q =    0.4166667  -0.4166667   0.5833333
     Message from routine kpoint_grid:
     ATTENTION: skip check of k-points equivalence
     [opt_tetra]  Optimized tetrahedron method is used.
 
     G-vector sticks info
     --------------------
     sticks:   dense  smooth     PW     G-vecs:    dense   smooth      PW
     Sum         433     433    163                 5985     5985    1459
 
     Using Slab Decomposition
 

     Title: 
     Electron-phonon matrix                                                     


     bravais-lattice index     =            2
     lattice parameter (alat)  =       9.5194  a.u.
     unit-cell volume          =     215.6591 (a.u.)^3
     number of atoms/cell      =            1
     number of atomic types    =            1
     number of electrons       =        14.00
     number of Kohn-Sham states=           11
     kinetic-energy cutoff     =      35.0000  Ry
     charge density cutoff     =     140.0000  Ry
     Exchange-correlation= PBE
                           (   1   4   3   4   0   0   0)

     celldm(1)=   9.519393  celldm(2)=   0.000000  celldm(3)=   0.000000
     celldm(4)=   0.000000  celldm(5)=   0.000000  celldm(6)=   0.000000

     crystal axes: (cart. coord. in units of alat)
               a(1) = (  -0.500000   0.000000   0.500000 )  
               a(2) = (   0.000000   0.500000   0.500000 )  
               a(3) = (  -0.500000   0.500000   0.000000 )  

     reciprocal axes: (cart. coord. in units 2 pi/alat)
               b(1) = ( -1.000000 -1.000000  1.000000 )  
               b(2) = (  1.000000  1.000000  1.000000 )  
               b(3) = ( -1.000000  1.000000 -1.000000 )  


     PseudoPot. # 1 for Pb read from file:
     ./Pb_ONCV_PBE-1.2.upf
     MD5 check sum: 7f27c247474026287e0dbe0f3167d60b
     Pseudo is Norm-conserving, Zval = 14.0
     Generated using ONCVPSP code by D. R. Hamann
     Using radial grid of  602 points,  8 beta functions with: 
                l(1) =   0
                l(2) =   0
                l(3) =   1
                l(4) =   1
                l(5) =   2
                l(6) =   2
                l(7) =   3
                l(8) =   3

     atomic species   valence    mass     pseudopotential
        Pb            14.00   207.20000     Pb( 1.00)

     48 Sym. Ops., with inversion, found



   Cartesian axes

     site n.     atom                  positions (alat units)
         1           Pb  tau(   1) = (   0.0000000   0.0000000   0.0000000  )

     number of k points=   432 (tetrahedron method)

     Number of k-points >= 100: set verbosity='high' to print them.

     Dense  grid:     5985 G-vectors     FFT dimensions: (  25,  25,  25)

     Estimated max dynamical RAM per process >       5.88 MB

     Estimated total dynamical RAM >      47.02 MB

     The potential is recalculated from file :
     ./_ph0/pwscf.q_4/pwscf.save/charge-density

     Starting wfcs are    0 atomic +   11 random wfcs

     Band Structure Calculation
     Davidson diagonalization with overlap

     ethr =  7.14E-11,  avg # of iterations = 20.9

     total cpu time spent up to now is       19.8 secs

     End of band structure calculation

     Number of k-points >= 100: set verbosity='high' to print the bands.

     the Fermi energy is    11.5662 ev

     Writing output data file ./_ph0/pwscf.q_4/pwscf.save/
 
     [dfpt_tetra]  Dos(E_F)[/Ry] :   0.9223183E+01

     Electron-phonon matrix                                                     

     bravais-lattice index     =            2
     lattice parameter (alat)  =       9.5194  a.u.
     unit-cell volume          =     215.6591 (a.u.)^3
     number of atoms/cell      =            1
     number of atomic types    =            1
     kinetic-energy cut-off    =      35.0000  Ry
     charge density cut-off    =     140.0000  Ry
     convergence threshold     =      1.0E-12
     beta                      =       0.7000
     number of iterations used =            4
     Exchange-correlation= PBE
                           (   1   4   3   4   0   0   0)


     celldm(1)=    9.51939  celldm(2)=    0.00000  celldm(3)=    0.00000
     celldm(4)=    0.00000  celldm(5)=    0.00000  celldm(6)=    0.00000

     crystal axes: (cart. coord. in units of alat)
               a(1) = ( -0.5000  0.0000  0.5000 )  
               a(2) = (  0.0000  0.5000  0.5000 )  
               a(3) = ( -0.5000  0.5000  0.0000 )  

     reciprocal axes: (cart. coord. in units 2 pi/alat)
               b(1) = ( -1.0000 -1.0000  1.0000 )  
               b(2) = (  1.0000  1.0000  1.0000 )  
               b(3) = ( -1.0000  1.0000 -1.0000 )  


     Atoms inside the unit cell: 

     Cartesian axes

     site n.  atom      mass           positions (alat units)
        1     Pb 207.2000   tau(    1) = (    0.00000    0.00000    0.00000  )

     Computing dynamical matrix for 
                    q = (   0.4166667  -0.4166667   0.5833333 )
 
      2 Sym.Ops. (no q -> -q+G )


     G cutoff =  321.3563  (   5985 G-vectors)     FFT grid: ( 25, 25, 25)
     number of k points=   432

     PseudoPot. # 1 for Pb read from file:
     ./Pb_ONCV_PBE-1.2.upf
     MD5 check sum: 7f27c247474026287e0dbe0f3167d60b
     Pseudo is Norm-conserving, Zval = 14.0
     Generated using ONCVPSP code by D. R. Hamann
     Using radial grid of  602 points,  8 beta functions with: 
                l(1) =   0
                l(2) =   0
                l(3) =   1
                l(4) =   1
                l(5) =   2
                l(6) =   2
                l(7) =   3
                l(8) =   3


     Atomic displacements:
     There are    3 irreducible representations

     Representation     1      1 modes -  To be done

     Representation     2      1 modes -  To be done

     Representation     3      1 modes -  To be done


     PHONON       :     19.60s CPU     28.01s WALL

     Reading dVscf from file dv
     Reading dynamics matrix from file matdyn4

     Diagonalizing the dynamical matrix

     q = (    0.416666667  -0.416666667   0.583333333 ) 

 **************************************************************************
     freq (    1) =       1.089998 [THz] =      36.358424 [cm-1]
     freq (    2) =       1.156085 [THz] =      38.562835 [cm-1]
     freq (    3) =       2.059015 [THz] =      68.681354 [cm-1]
 **************************************************************************
 [elph_scdft]  write elph.dat with symmetries (only on Fermi surfaces)
 [elph_scdft]   Lowest band which contains FS :            7
 [elph_scdft]  Highest band which contains FS :            8
 [elph_scdft]    # of bands which contains FS :            2

     Calculation of q =    0.2500000  -0.2500000   0.4166667
     Message from routine kpoint_grid:
     ATTENTION: skip check of k-points equivalence
     [opt_tetra]  Optimized tetrahedron method is used.
 
     G-vector sticks info
     --------------------
     sticks:   dense  smooth     PW     G-vecs:    dense   smooth      PW
     Sum         433     433    163                 5985     5985    1363
 
     Using Slab Decomposition
 

     Title: 
     Electron-phonon matrix                                                     


     bravais-lattice index     =            2
     lattice parameter (alat)  =       9.5194  a.u.
     unit-cell volume          =     215.6591 (a.u.)^3
     number of atoms/cell      =            1
     number of atomic types    =            1
     number of electrons       =        14.00
     number of Kohn-Sham states=           11
     kinetic-energy cutoff     =      35.0000  Ry
     charge density cutoff     =     140.0000  Ry
     Exchange-correlation= PBE
                           (   1   4   3   4   0   0   0)

     celldm(1)=   9.519393  celldm(2)=   0.000000  celldm(3)=   0.000000
     celldm(4)=   0.000000  celldm(5)=   0.000000  celldm(6)=   0.000000

     crystal axes: (cart. coord. in units of alat)
               a(1) = (  -0.500000   0.000000   0.500000 )  
               a(2) = (   0.000000   0.500000   0.500000 )  
               a(3) = (  -0.500000   0.500000   0.000000 )  

     reciprocal axes: (cart. coord. in units 2 pi/alat)
               b(1) = ( -1.000000 -1.000000  1.000000 )  
               b(2) = (  1.000000  1.000000  1.000000 )  
               b(3) = ( -1.000000  1.000000 -1.000000 )  


     PseudoPot. # 1 for Pb read from file:
     ./Pb_ONCV_PBE-1.2.upf
     MD5 check sum: 7f27c247474026287e0dbe0f3167d60b
     Pseudo is Norm-conserving, Zval = 14.0
     Generated using ONCVPSP code by D. R. Hamann
     Using radial grid of  602 points,  8 beta functions with: 
                l(1) =   0
                l(2) =   0
                l(3) =   1
                l(4) =   1
                l(5) =   2
                l(6) =   2
                l(7) =   3
                l(8) =   3

     atomic species   valence    mass     pseudopotential
        Pb            14.00   207.20000     Pb( 1.00)

     48 Sym. Ops., with inversion, found



   Cartesian axes

     site n.     atom                  positions (alat units)
         1           Pb  tau(   1) = (   0.0000000   0.0000000   0.0000000  )

     number of k points=   432 (tetrahedron method)

     Number of k-points >= 100: set verbosity='high' to print them.

     Dense  grid:     5985 G-vectors     FFT dimensions: (  25,  25,  25)

     Estimated max dynamical RAM per process >       5.84 MB

     Estimated total dynamical RAM >      46.74 MB

     The potential is recalculated from file :
     ./_ph0/pwscf.q_5/pwscf.save/charge-density

     Starting wfcs are    0 atomic +   11 random wfcs

     Band Structure Calculation
     Davidson diagonalization with overlap

     ethr =  7.14E-11,  avg # of iterations = 21.0

     total cpu time spent up to now is       24.4 secs

     End of band structure calculation

     Number of k-points >= 100: set verbosity='high' to print the bands.

     the Fermi energy is    11.5662 ev

     Writing output data file ./_ph0/pwscf.q_5/pwscf.save/
 
     [dfpt_tetra]  Dos(E_F)[/Ry] :   0.9223183E+01

     Electron-phonon matrix                                                     

     bravais-lattice index     =            2
     lattice parameter (alat)  =       9.5194  a.u.
     unit-cell volume          =     215.6591 (a.u.)^3
     number of atoms/cell      =            1
     number of atomic types    =            1
     kinetic-energy cut-off    =      35.0000  Ry
     charge density cut-off    =     140.0000  Ry
     convergence threshold     =      1.0E-12
     beta                      =       0.7000
     number of iterations used =            4
     Exchange-correlation= PBE
                           (   1   4   3   4   0   0   0)


     celldm(1)=    9.51939  celldm(2)=    0.00000  celldm(3)=    0.00000
     celldm(4)=    0.00000  celldm(5)=    0.00000  celldm(6)=    0.00000

     crystal axes: (cart. coord. in units of alat)
               a(1) = ( -0.5000  0.0000  0.5000 )  
               a(2) = (  0.0000  0.5000  0.5000 )  
               a(3) = ( -0.5000  0.5000  0.0000 )  

     reciprocal axes: (cart. coord. in units 2 pi/alat)
               b(1) = ( -1.0000 -1.0000  1.0000 )  
               b(2) = (  1.0000  1.0000  1.0000 )  
               b(3) = ( -1.0000  1.0000 -1.0000 )  


     Atoms inside the unit cell: 

     Cartesian axes

     site n.  atom      mass           positions (alat units)
        1     Pb 207.2000   tau(    1) = (    0.00000    0.00000    0.00000  )

     Computing dynamical matrix for 
                    q = (   0.2500000  -0.2500000   0.4166667 )
 
      2 Sym.Ops. (no q -> -q+G )


     G cutoff =  321.3563  (   5985 G-vectors)     FFT grid: ( 25, 25, 25)
     number of k points=   432

     PseudoPot. # 1 for Pb read from file:
     ./Pb_ONCV_PBE-1.2.upf
     MD5 check sum: 7f27c247474026287e0dbe0f3167d60b
     Pseudo is Norm-conserving, Zval = 14.0
     Generated using ONCVPSP code by D. R. Hamann
     Using radial grid of  602 points,  8 beta functions with: 
                l(1) =   0
                l(2) =   0
                l(3) =   1
                l(4) =   1
                l(5) =   2
                l(6) =   2
                l(7) =   3
                l(8) =   3


     Atomic displacements:
     There are    3 irreducible representations

     Representation     1      1 modes -  To be done

     Representation     2      1 modes -  To be done

     Representation     3      1 modes -  To be done


     PHONON       :     24.47s CPU     33.07s WALL

     Reading dVscf from file dv
     Reading dynamics matrix from file matdyn5

     Diagonalizing the dynamical matrix

     q = (    0.250000000  -0.250000000   0.416666667 ) 

 **************************************************************************
     freq (    1) =       0.995841 [THz] =      33.217670 [cm-1]
     freq (    2) =       1.019433 [THz] =      34.004609 [cm-1]
     freq (    3) =       1.822480 [THz] =      60.791387 [cm-1]
 **************************************************************************
 [elph_scdft]  write elph.dat with symmetries (only on Fermi surfaces)
 [elph_scdft]   Lowest band which contains FS :            7
 [elph_scdft]  Highest band which contains FS :            8
 [elph_scdft]    # of bands which contains FS :            2

     Calculation of q =    0.0833333  -0.0833333   0.2500000
     Message from routine kpoint_grid:
     ATTENTION: skip check of k-points equivalence
     [opt_tetra]  Optimized tetrahedron method is used.
 
     G-vector sticks info
     --------------------
     sticks:   dense  smooth     PW     G-vecs:    dense   smooth      PW
     Sum         433     433    151                 5985     5985    1243
 
     Using Slab Decomposition
 

     Title: 
     Electron-phonon matrix                                                     


     bravais-lattice index     =            2
     lattice parameter (alat)  =       9.5194  a.u.
     unit-cell volume          =     215.6591 (a.u.)^3
     number of atoms/cell      =            1
     number of atomic types    =            1
     number of electrons       =        14.00
     number of Kohn-Sham states=           11
     kinetic-energy cutoff     =      35.0000  Ry
     charge density cutoff     =     140.0000  Ry
     Exchange-correlation= PBE
                           (   1   4   3   4   0   0   0)

     celldm(1)=   9.519393  celldm(2)=   0.000000  celldm(3)=   0.000000
     celldm(4)=   0.000000  celldm(5)=   0.000000  celldm(6)=   0.000000

     crystal axes: (cart. coord. in units of alat)
               a(1) = (  -0.500000   0.000000   0.500000 )  
               a(2) = (   0.000000   0.500000   0.500000 )  
               a(3) = (  -0.500000   0.500000   0.000000 )  

     reciprocal axes: (cart. coord. in units 2 pi/alat)
               b(1) = ( -1.000000 -1.000000  1.000000 )  
               b(2) = (  1.000000  1.000000  1.000000 )  
               b(3) = ( -1.000000  1.000000 -1.000000 )  


     PseudoPot. # 1 for Pb read from file:
     ./Pb_ONCV_PBE-1.2.upf
     MD5 check sum: 7f27c247474026287e0dbe0f3167d60b
     Pseudo is Norm-conserving, Zval = 14.0
     Generated using ONCVPSP code by D. R. Hamann
     Using radial grid of  602 points,  8 beta functions with: 
                l(1) =   0
                l(2) =   0
                l(3) =   1
                l(4) =   1
                l(5) =   2
                l(6) =   2
                l(7) =   3
                l(8) =   3

     atomic species   valence    mass     pseudopotential
        Pb            14.00   207.20000     Pb( 1.00)

     48 Sym. Ops., with inversion, found



   Cartesian axes

     site n.     atom                  positions (alat units)
         1           Pb  tau(   1) = (   0.0000000   0.0000000   0.0000000  )

     number of k points=   432 (tetrahedron method)

     Number of k-points >= 100: set verbosity='high' to print them.

     Dense  grid:     5985 G-vectors     FFT dimensions: (  25,  25,  25)

     Estimated max dynamical RAM per process >       5.81 MB

     Estimated total dynamical RAM >      46.47 MB

     The potential is recalculated from file :
     ./_ph0/pwscf.q_6/pwscf.save/charge-density

     Starting wfcs are    0 atomic +   11 random wfcs

     Band Structure Calculation
     Davidson diagonalization with overlap

     ethr =  7.14E-11,  avg # of iterations = 21.0

     total cpu time spent up to now is       28.9 secs

     End of band structure calculation

     Number of k-points >= 100: set verbosity='high' to print the bands.

     the Fermi energy is    11.5662 ev

     Writing output data file ./_ph0/pwscf.q_6/pwscf.save/
 
     [dfpt_tetra]  Dos(E_F)[/Ry] :   0.9223183E+01

     Electron-phonon matrix                                                     

     bravais-lattice index     =            2
     lattice parameter (alat)  =       9.5194  a.u.
     unit-cell volume          =     215.6591 (a.u.)^3
     number of atoms/cell      =            1
     number of atomic types    =            1
     kinetic-energy cut-off    =      35.0000  Ry
     charge density cut-off    =     140.0000  Ry
     convergence threshold     =      1.0E-12
     beta                      =       0.7000
     number of iterations used =            4
     Exchange-correlation= PBE
                           (   1   4   3   4   0   0   0)


     celldm(1)=    9.51939  celldm(2)=    0.00000  celldm(3)=    0.00000
     celldm(4)=    0.00000  celldm(5)=    0.00000  celldm(6)=    0.00000

     crystal axes: (cart. coord. in units of alat)
               a(1) = ( -0.5000  0.0000  0.5000 )  
               a(2) = (  0.0000  0.5000  0.5000 )  
               a(3) = ( -0.5000  0.5000  0.0000 )  

     reciprocal axes: (cart. coord. in units 2 pi/alat)
               b(1) = ( -1.0000 -1.0000  1.0000 )  
               b(2) = (  1.0000  1.0000  1.0000 )  
               b(3) = ( -1.0000  1.0000 -1.0000 )  


     Atoms inside the unit cell: 

     Cartesian axes

     site n.  atom      mass           positions (alat units)
        1     Pb 207.2000   tau(    1) = (    0.00000    0.00000    0.00000  )

     Computing dynamical matrix for 
                    q = (   0.0833333  -0.0833333   0.2500000 )
 
      2 Sym.Ops. (no q -> -q+G )


     G cutoff =  321.3563  (   5985 G-vectors)     FFT grid: ( 25, 25, 25)
     number of k points=   432

     PseudoPot. # 1 for Pb read from file:
     ./Pb_ONCV_PBE-1.2.upf
     MD5 check sum: 7f27c247474026287e0dbe0f3167d60b
     Pseudo is Norm-conserving, Zval = 14.0
     Generated using ONCVPSP code by D. R. Hamann
     Using radial grid of  602 points,  8 beta functions with: 
                l(1) =   0
                l(2) =   0
                l(3) =   1
                l(4) =   1
                l(5) =   2
                l(6) =   2
                l(7) =   3
                l(8) =   3


     Atomic displacements:
     There are    3 irreducible representations

     Representation     1      1 modes -  To be done

     Representation     2      1 modes -  To be done

     Representation     3      1 modes -  To be done


     PHONON       :     29.32s CPU     38.13s WALL

     Reading dVscf from file dv
     Reading dynamics matrix from file matdyn6

     Diagonalizing the dynamical matrix

     q = (    0.083333333  -0.083333333   0.250000000 ) 

 **************************************************************************
     freq (    1) =       0.724838 [THz] =      24.178005 [cm-1]
     freq (    2) =       0.767760 [THz] =      25.609705 [cm-1]
     freq (    3) =       1.253057 [THz] =      41.797477 [cm-1]
 **************************************************************************
 [elph_scdft]  write elph.dat with symmetries (only on Fermi surfaces)
 [elph_scdft]   Lowest band which contains FS :            7
 [elph_scdft]  Highest band which contains FS :            8
 [elph_scdft]    # of bands which contains FS :            2

     Calculation of q =   -0.0833333   0.4166667   0.0833333
     Message from routine kpoint_grid:
     ATTENTION: skip check of k-points equivalence
     [opt_tetra]  Optimized tetrahedron method is used.
 
     G-vector sticks info
     --------------------
     sticks:   dense  smooth     PW     G-vecs:    dense   smooth      PW
     Sum         433     433    151                 5985     5985    1243
 
     Using Slab Decomposition
 

     Title: 
     Electron-phonon matrix                                                     


     bravais-lattice index     =            2
     lattice parameter (alat)  =       9.5194  a.u.
     unit-cell volume          =     215.6591 (a.u.)^3
     number of atoms/cell      =            1
     number of atomic types    =            1
     number of electrons       =        14.00
     number of Kohn-Sham states=           11
     kinetic-energy cutoff     =      35.0000  Ry
     charge density cutoff     =     140.0000  Ry
     Exchange-correlation= PBE
                           (   1   4   3   4   0   0   0)

     celldm(1)=   9.519393  celldm(2)=   0.000000  celldm(3)=   0.000000
     celldm(4)=   0.000000  celldm(5)=   0.000000  celldm(6)=   0.000000

     crystal axes: (cart. coord. in units of alat)
               a(1) = (  -0.500000   0.000000   0.500000 )  
               a(2) = (   0.000000   0.500000   0.500000 )  
               a(3) = (  -0.500000   0.500000   0.000000 )  

     reciprocal axes: (cart. coord. in units 2 pi/alat)
               b(1) = ( -1.000000 -1.000000  1.000000 )  
               b(2) = (  1.000000  1.000000  1.000000 )  
               b(3) = ( -1.000000  1.000000 -1.000000 )  


     PseudoPot. # 1 for Pb read from file:
     ./Pb_ONCV_PBE-1.2.upf
     MD5 check sum: 7f27c247474026287e0dbe0f3167d60b
     Pseudo is Norm-conserving, Zval = 14.0
     Generated using ONCVPSP code by D. R. Hamann
     Using radial grid of  602 points,  8 beta functions with: 
                l(1) =   0
                l(2) =   0
                l(3) =   1
                l(4) =   1
                l(5) =   2
                l(6) =   2
                l(7) =   3
                l(8) =   3

     atomic species   valence    mass     pseudopotential
        Pb            14.00   207.20000     Pb( 1.00)

     48 Sym. Ops., with inversion, found



   Cartesian axes

     site n.     atom                  positions (alat units)
         1           Pb  tau(   1) = (   0.0000000   0.0000000   0.0000000  )

     number of k points=   432 (tetrahedron method)

     Number of k-points >= 100: set verbosity='high' to print them.

     Dense  grid:     5985 G-vectors     FFT dimensions: (  25,  25,  25)

     Estimated max dynamical RAM per process >       5.83 MB

     Estimated total dynamical RAM >      46.62 MB

     The potential is recalculated from file :
     ./_ph0/pwscf.q_7/pwscf.save/charge-density

     Starting wfcs are    0 atomic +   11 random wfcs

     Band Structure Calculation
     Davidson diagonalization with overlap

     ethr =  7.14E-11,  avg # of iterations = 20.8

     total cpu time spent up to now is       33.4 secs

     End of band structure calculation

     Number of k-points >= 100: set verbosity='high' to print the bands.

     the Fermi energy is    11.5662 ev

     Writing output data file ./_ph0/pwscf.q_7/pwscf.save/
 
     [dfpt_tetra]  Dos(E_F)[/Ry] :   0.9223183E+01

     Electron-phonon matrix                                                     

     bravais-lattice index     =            2
     lattice parameter (alat)  =       9.5194  a.u.
     unit-cell volume          =     215.6591 (a.u.)^3
     number of atoms/cell      =            1
     number of atomic types    =            1
     kinetic-energy cut-off    =      35.0000  Ry
     charge density cut-off    =     140.0000  Ry
     convergence threshold     =      1.0E-12
     beta                      =       0.7000
     number of iterations used =            4
     Exchange-correlation= PBE
                           (   1   4   3   4   0   0   0)


     celldm(1)=    9.51939  celldm(2)=    0.00000  celldm(3)=    0.00000
     celldm(4)=    0.00000  celldm(5)=    0.00000  celldm(6)=    0.00000

     crystal axes: (cart. coord. in units of alat)
               a(1) = ( -0.5000  0.0000  0.5000 )  
               a(2) = (  0.0000  0.5000  0.5000 )  
               a(3) = ( -0.5000  0.5000  0.0000 )  

     reciprocal axes: (cart. coord. in units 2 pi/alat)
               b(1) = ( -1.0000 -1.0000  1.0000 )  
               b(2) = (  1.0000  1.0000  1.0000 )  
               b(3) = ( -1.0000  1.0000 -1.0000 )  


     Atoms inside the unit cell: 

     Cartesian axes

     site n.  atom      mass           positions (alat units)
        1     Pb 207.2000   tau(    1) = (    0.00000    0.00000    0.00000  )

     Computing dynamical matrix for 
                    q = (  -0.0833333   0.4166667   0.0833333 )
 
      2 Sym.Ops. (no q -> -q+G )


     G cutoff =  321.3563  (   5985 G-vectors)     FFT grid: ( 25, 25, 25)
     number of k points=   432

     PseudoPot. # 1 for Pb read from file:
     ./Pb_ONCV_PBE-1.2.upf
     MD5 check sum: 7f27c247474026287e0dbe0f3167d60b
     Pseudo is Norm-conserving, Zval = 14.0
     Generated using ONCVPSP code by D. R. Hamann
     Using radial grid of  602 points,  8 beta functions with: 
                l(1) =   0
                l(2) =   0
                l(3) =   1
                l(4) =   1
                l(5) =   2
                l(6) =   2
                l(7) =   3
                l(8) =   3


     Atomic displacements:
     There are    3 irreducible representations

     Representation     1      1 modes -  To be done

     Representation     2      1 modes -  To be done

     Representation     3      1 modes -  To be done


     PHONON       :     34.19s CPU     43.18s WALL

     Reading dVscf from file dv
     Reading dynamics matrix from file matdyn7

     Diagonalizing the dynamical matrix

     q = (   -0.083333333   0.416666667   0.083333333 ) 

 **************************************************************************
     freq (    1) =       1.006912 [THz] =      33.586983 [cm-1]
     freq (    2) =       1.025594 [THz] =      34.210136 [cm-1]
     freq (    3) =       1.667283 [THz] =      55.614565 [cm-1]
 **************************************************************************
 [elph_scdft]  write elph.dat with symmetries (only on Fermi surfaces)
 [elph_scdft]   Lowest band which contains FS :            7
 [elph_scdft]  Highest band which contains FS :            8
 [elph_scdft]    # of bands which contains FS :            2

     Calculation of q =   -0.2500000   0.5833333  -0.0833333
     Message from routine kpoint_grid:
     ATTENTION: skip check of k-points equivalence
     [opt_tetra]  Optimized tetrahedron method is used.
 
     G-vector sticks info
     --------------------
     sticks:   dense  smooth     PW     G-vecs:    dense   smooth      PW
     Sum         433     433    163                 5985     5985    1363
 
     Using Slab Decomposition
 

     Title: 
     Electron-phonon matrix                                                     


     bravais-lattice index     =            2
     lattice parameter (alat)  =       9.5194  a.u.
     unit-cell volume          =     215.6591 (a.u.)^3
     number of atoms/cell      =            1
     number of atomic types    =            1
     number of electrons       =        14.00
     number of Kohn-Sham states=           11
     kinetic-energy cutoff     =      35.0000  Ry
     charge density cutoff     =     140.0000  Ry
     Exchange-correlation= PBE
                           (   1   4   3   4   0   0   0)

     celldm(1)=   9.519393  celldm(2)=   0.000000  celldm(3)=   0.000000
     celldm(4)=   0.000000  celldm(5)=   0.000000  celldm(6)=   0.000000

     crystal axes: (cart. coord. in units of alat)
               a(1) = (  -0.500000   0.000000   0.500000 )  
               a(2) = (   0.000000   0.500000   0.500000 )  
               a(3) = (  -0.500000   0.500000   0.000000 )  

     reciprocal axes: (cart. coord. in units 2 pi/alat)
               b(1) = ( -1.000000 -1.000000  1.000000 )  
               b(2) = (  1.000000  1.000000  1.000000 )  
               b(3) = ( -1.000000  1.000000 -1.000000 )  


     PseudoPot. # 1 for Pb read from file:
     ./Pb_ONCV_PBE-1.2.upf
     MD5 check sum: 7f27c247474026287e0dbe0f3167d60b
     Pseudo is Norm-conserving, Zval = 14.0
     Generated using ONCVPSP code by D. R. Hamann
     Using radial grid of  602 points,  8 beta functions with: 
                l(1) =   0
                l(2) =   0
                l(3) =   1
                l(4) =   1
                l(5) =   2
                l(6) =   2
                l(7) =   3
                l(8) =   3

     atomic species   valence    mass     pseudopotential
        Pb            14.00   207.20000     Pb( 1.00)

     48 Sym. Ops., with inversion, found



   Cartesian axes

     site n.     atom                  positions (alat units)
         1           Pb  tau(   1) = (   0.0000000   0.0000000   0.0000000  )

     number of k points=   432 (tetrahedron method)

     Number of k-points >= 100: set verbosity='high' to print them.

     Dense  grid:     5985 G-vectors     FFT dimensions: (  25,  25,  25)

     Estimated max dynamical RAM per process >       5.85 MB

     Estimated total dynamical RAM >      46.84 MB

     The potential is recalculated from file :
     ./_ph0/pwscf.q_8/pwscf.save/charge-density

     Starting wfcs are    0 atomic +   11 random wfcs

     Band Structure Calculation
     Davidson diagonalization with overlap

     ethr =  7.14E-11,  avg # of iterations = 20.7

     total cpu time spent up to now is       37.9 secs

     End of band structure calculation

     Number of k-points >= 100: set verbosity='high' to print the bands.

     the Fermi energy is    11.5662 ev

     Writing output data file ./_ph0/pwscf.q_8/pwscf.save/
 
     [dfpt_tetra]  Dos(E_F)[/Ry] :   0.9223183E+01

     Electron-phonon matrix                                                     

     bravais-lattice index     =            2
     lattice parameter (alat)  =       9.5194  a.u.
     unit-cell volume          =     215.6591 (a.u.)^3
     number of atoms/cell      =            1
     number of atomic types    =            1
     kinetic-energy cut-off    =      35.0000  Ry
     charge density cut-off    =     140.0000  Ry
     convergence threshold     =      1.0E-12
     beta                      =       0.7000
     number of iterations used =            4
     Exchange-correlation= PBE
                           (   1   4   3   4   0   0   0)


     celldm(1)=    9.51939  celldm(2)=    0.00000  celldm(3)=    0.00000
     celldm(4)=    0.00000  celldm(5)=    0.00000  celldm(6)=    0.00000

     crystal axes: (cart. coord. in units of alat)
               a(1) = ( -0.5000  0.0000  0.5000 )  
               a(2) = (  0.0000  0.5000  0.5000 )  
               a(3) = ( -0.5000  0.5000  0.0000 )  

     reciprocal axes: (cart. coord. in units 2 pi/alat)
               b(1) = ( -1.0000 -1.0000  1.0000 )  
               b(2) = (  1.0000  1.0000  1.0000 )  
               b(3) = ( -1.0000  1.0000 -1.0000 )  


     Atoms inside the unit cell: 

     Cartesian axes

     site n.  atom      mass           positions (alat units)
        1     Pb 207.2000   tau(    1) = (    0.00000    0.00000    0.00000  )

     Computing dynamical matrix for 
                    q = (  -0.2500000   0.5833333  -0.0833333 )
 
     No symmetry!

     G cutoff =  321.3563  (   5985 G-vectors)     FFT grid: ( 25, 25, 25)
     number of k points=   432

     PseudoPot. # 1 for Pb read from file:
     ./Pb_ONCV_PBE-1.2.upf
     MD5 check sum: 7f27c247474026287e0dbe0f3167d60b
     Pseudo is Norm-conserving, Zval = 14.0
     Generated using ONCVPSP code by D. R. Hamann
     Using radial grid of  602 points,  8 beta functions with: 
                l(1) =   0
                l(2) =   0
                l(3) =   1
                l(4) =   1
                l(5) =   2
                l(6) =   2
                l(7) =   3
                l(8) =   3


     Atomic displacements:
     There are    3 irreducible representations

     Representation     1      1 modes -  To be done

     Representation     2      1 modes -  To be done

     Representation     3      1 modes -  To be done


     PHONON       :     39.04s CPU     48.22s WALL

     Reading dVscf from file dv
     Reading dynamics matrix from file matdyn8

     Diagonalizing the dynamical matrix

     q = (   -0.250000000   0.583333333  -0.083333333 ) 

 **************************************************************************
     freq (    1) =       1.100613 [THz] =      36.712498 [cm-1]
     freq (    2) =       1.333990 [THz] =      44.497121 [cm-1]
     freq (    3) =       1.844741 [THz] =      61.533950 [cm-1]
 **************************************************************************
 [elph_scdft]  write elph.dat with symmetries (only on Fermi surfaces)
 [elph_scdft]   Lowest band which contains FS :            7
 [elph_scdft]  Highest band which contains FS :            8
 [elph_scdft]    # of bands which contains FS :            2

     Calculation of q =    0.5833333  -0.2500000   0.7500000
     Message from routine kpoint_grid:
     ATTENTION: skip check of k-points equivalence
     [opt_tetra]  Optimized tetrahedron method is used.
 
     G-vector sticks info
     --------------------
     sticks:   dense  smooth     PW     G-vecs:    dense   smooth      PW
     Sum         433     433    163                 5985     5985    1459
 
     Using Slab Decomposition
 

     Title: 
     Electron-phonon matrix                                                     


     bravais-lattice index     =            2
     lattice parameter (alat)  =       9.5194  a.u.
     unit-cell volume          =     215.6591 (a.u.)^3
     number of atoms/cell      =            1
     number of atomic types    =            1
     number of electrons       =        14.00
     number of Kohn-Sham states=           11
     kinetic-energy cutoff     =      35.0000  Ry
     charge density cutoff     =     140.0000  Ry
     Exchange-correlation= PBE
                           (   1   4   3   4   0   0   0)

     celldm(1)=   9.519393  celldm(2)=   0.000000  celldm(3)=   0.000000
     celldm(4)=   0.000000  celldm(5)=   0.000000  celldm(6)=   0.000000

     crystal axes: (cart. coord. in units of alat)
               a(1) = (  -0.500000   0.000000   0.500000 )  
               a(2) = (   0.000000   0.500000   0.500000 )  
               a(3) = (  -0.500000   0.500000   0.000000 )  

     reciprocal axes: (cart. coord. in units 2 pi/alat)
               b(1) = ( -1.000000 -1.000000  1.000000 )  
               b(2) = (  1.000000  1.000000  1.000000 )  
               b(3) = ( -1.000000  1.000000 -1.000000 )  


     PseudoPot. # 1 for Pb read from file:
     ./Pb_ONCV_PBE-1.2.upf
     MD5 check sum: 7f27c247474026287e0dbe0f3167d60b
     Pseudo is Norm-conserving, Zval = 14.0
     Generated using ONCVPSP code by D. R. Hamann
     Using radial grid of  602 points,  8 beta functions with: 
                l(1) =   0
                l(2) =   0
                l(3) =   1
                l(4) =   1
                l(5) =   2
                l(6) =   2
                l(7) =   3
                l(8) =   3

     atomic species   valence    mass     pseudopotential
        Pb            14.00   207.20000     Pb( 1.00)

     48 Sym. Ops., with inversion, found



   Cartesian axes

     site n.     atom                  positions (alat units)
         1           Pb  tau(   1) = (   0.0000000   0.0000000   0.0000000  )

     number of k points=   432 (tetrahedron method)

     Number of k-points >= 100: set verbosity='high' to print them.

     Dense  grid:     5985 G-vectors     FFT dimensions: (  25,  25,  25)

     Estimated max dynamical RAM per process >       5.90 MB

     Estimated total dynamical RAM >      47.19 MB

     The potential is recalculated from file :
     ./_ph0/pwscf.q_9/pwscf.save/charge-density

     Starting wfcs are    0 atomic +   11 random wfcs

     Band Structure Calculation
     Davidson diagonalization with overlap

     ethr =  7.14E-11,  avg # of iterations = 20.7

     total cpu time spent up to now is       43.0 secs

     End of band structure calculation

     Number of k-points >= 100: set verbosity='high' to print the bands.

     the Fermi energy is    11.5662 ev

     Writing output data file ./_ph0/pwscf.q_9/pwscf.save/
 
     [dfpt_tetra]  Dos(E_F)[/Ry] :   0.9223183E+01

     Electron-phonon matrix                                                     

     bravais-lattice index     =            2
     lattice parameter (alat)  =       9.5194  a.u.
     unit-cell volume          =     215.6591 (a.u.)^3
     number of atoms/cell      =            1
     number of atomic types    =            1
     kinetic-energy cut-off    =      35.0000  Ry
     charge density cut-off    =     140.0000  Ry
     convergence threshold     =      1.0E-12
     beta                      =       0.7000
     number of iterations used =            4
     Exchange-correlation= PBE
                           (   1   4   3   4   0   0   0)


     celldm(1)=    9.51939  celldm(2)=    0.00000  celldm(3)=    0.00000
     celldm(4)=    0.00000  celldm(5)=    0.00000  celldm(6)=    0.00000

     crystal axes: (cart. coord. in units of alat)
               a(1) = ( -0.5000  0.0000  0.5000 )  
               a(2) = (  0.0000  0.5000  0.5000 )  
               a(3) = ( -0.5000  0.5000  0.0000 )  

     reciprocal axes: (cart. coord. in units 2 pi/alat)
               b(1) = ( -1.0000 -1.0000  1.0000 )  
               b(2) = (  1.0000  1.0000  1.0000 )  
               b(3) = ( -1.0000  1.0000 -1.0000 )  


     Atoms inside the unit cell: 

     Cartesian axes

     site n.  atom      mass           positions (alat units)
        1     Pb 207.2000   tau(    1) = (    0.00000    0.00000    0.00000  )

     Computing dynamical matrix for 
                    q = (   0.5833333  -0.2500000   0.7500000 )
 
     No symmetry!

     G cutoff =  321.3563  (   5985 G-vectors)     FFT grid: ( 25, 25, 25)
     number of k points=   432

     PseudoPot. # 1 for Pb read from file:
     ./Pb_ONCV_PBE-1.2.upf
     MD5 check sum: 7f27c247474026287e0dbe0f3167d60b
     Pseudo is Norm-conserving, Zval = 14.0
     Generated using ONCVPSP code by D. R. Hamann
     Using radial grid of  602 points,  8 beta functions with: 
                l(1) =   0
                l(2) =   0
                l(3) =   1
                l(4) =   1
                l(5) =   2
                l(6) =   2
                l(7) =   3
                l(8) =   3


     Atomic displacements:
     There are    3 irreducible representations

     Representation     1      1 modes -  To be done

     Representation     2      1 modes -  To be done

     Representation     3      1 modes -  To be done


     PHONON       :     44.45s CPU     53.88s WALL

     Reading dVscf from file dv
     Reading dynamics matrix from file matdyn9

     Diagonalizing the dynamical matrix

     q = (    0.583333333  -0.250000000   0.750000000 ) 

 **************************************************************************
     freq (    1) =       1.204523 [THz] =      40.178573 [cm-1]
     freq (    2) =       1.572575 [THz] =      52.455465 [cm-1]
     freq (    3) =       2.014478 [THz] =      67.195739 [cm-1]
 **************************************************************************
 [elph_scdft]  write elph.dat with symmetries (only on Fermi surfaces)
 [elph_scdft]   Lowest band which contains FS :            7
 [elph_scdft]  Highest band which contains FS :            8
 [elph_scdft]    # of bands which contains FS :            2

     Calculation of q =    0.4166667  -0.0833333   0.5833333
     Message from routine kpoint_grid:
     ATTENTION: skip check of k-points equivalence
     [opt_tetra]  Optimized tetrahedron method is used.
 
     G-vector sticks info
     --------------------
     sticks:   dense  smooth     PW     G-vecs:    dense   smooth      PW
     Sum         433     433    163                 5985     5985    1411
 
     Using Slab Decomposition
 

     Title: 
     Electron-phonon matrix                                                     


     bravais-lattice index     =            2
     lattice parameter (alat)  =       9.5194  a.u.
     unit-cell volume          =     215.6591 (a.u.)^3
     number of atoms/cell      =            1
     number of atomic types    =            1
     number of electrons       =        14.00
     number of Kohn-Sham states=           11
     kinetic-energy cutoff     =      35.0000  Ry
     charge density cutoff     =     140.0000  Ry
     Exchange-correlation= PBE
                           (   1   4   3   4   0   0   0)

     celldm(1)=   9.519393  celldm(2)=   0.000000  celldm(3)=   0.000000
     celldm(4)=   0.000000  celldm(5)=   0.000000  celldm(6)=   0.000000

     crystal axes: (cart. coord. in units of alat)
               a(1) = (  -0.500000   0.000000   0.500000 )  
               a(2) = (   0.000000   0.500000   0.500000 )  
               a(3) = (  -0.500000   0.500000   0.000000 )  

     reciprocal axes: (cart. coord. in units 2 pi/alat)
               b(1) = ( -1.000000 -1.000000  1.000000 )  
               b(2) = (  1.000000  1.000000  1.000000 )  
               b(3) = ( -1.000000  1.000000 -1.000000 )  


     PseudoPot. # 1 for Pb read from file:
     ./Pb_ONCV_PBE-1.2.upf
     MD5 check sum: 7f27c247474026287e0dbe0f3167d60b
     Pseudo is Norm-conserving, Zval = 14.0
     Generated using ONCVPSP code by D. R. Hamann
     Using radial grid of  602 points,  8 beta functions with: 
                l(1) =   0
                l(2) =   0
                l(3) =   1
                l(4) =   1
                l(5) =   2
                l(6) =   2
                l(7) =   3
                l(8) =   3

     atomic species   valence    mass     pseudopotential
        Pb            14.00   207.20000     Pb( 1.00)

     48 Sym. Ops., with inversion, found



   Cartesian axes

     site n.     atom                  positions (alat units)
         1           Pb  tau(   1) = (   0.0000000   0.0000000   0.0000000  )

     number of k points=   432 (tetrahedron method)

     Number of k-points >= 100: set verbosity='high' to print them.

     Dense  grid:     5985 G-vectors     FFT dimensions: (  25,  25,  25)

     Estimated max dynamical RAM per process >       5.86 MB

     Estimated total dynamical RAM >      46.91 MB

     The potential is recalculated from file :
     ./_ph0/pwscf.q_10/pwscf.save/charge-density

     Starting wfcs are    0 atomic +   11 random wfcs

     Band Structure Calculation
     Davidson diagonalization with overlap

     ethr =  7.14E-11,  avg # of iterations = 20.8

     total cpu time spent up to now is       47.5 secs

     End of band structure calculation

     Number of k-points >= 100: set verbosity='high' to print the bands.

     the Fermi energy is    11.5662 ev

     Writing output data file ./_ph0/pwscf.q_10/pwscf.save/
 
     [dfpt_tetra]  Dos(E_F)[/Ry] :   0.9223183E+01

     Electron-phonon matrix                                                     

     bravais-lattice index     =            2
     lattice parameter (alat)  =       9.5194  a.u.
     unit-cell volume          =     215.6591 (a.u.)^3
     number of atoms/cell      =            1
     number of atomic types    =            1
     kinetic-energy cut-off    =      35.0000  Ry
     charge density cut-off    =     140.0000  Ry
     convergence threshold     =      1.0E-12
     beta                      =       0.7000
     number of iterations used =            4
     Exchange-correlation= PBE
                           (   1   4   3   4   0   0   0)


     celldm(1)=    9.51939  celldm(2)=    0.00000  celldm(3)=    0.00000
     celldm(4)=    0.00000  celldm(5)=    0.00000  celldm(6)=    0.00000

     crystal axes: (cart. coord. in units of alat)
               a(1) = ( -0.5000  0.0000  0.5000 )  
               a(2) = (  0.0000  0.5000  0.5000 )  
               a(3) = ( -0.5000  0.5000  0.0000 )  

     reciprocal axes: (cart. coord. in units 2 pi/alat)
               b(1) = ( -1.0000 -1.0000  1.0000 )  
               b(2) = (  1.0000  1.0000  1.0000 )  
               b(3) = ( -1.0000  1.0000 -1.0000 )  


     Atoms inside the unit cell: 

     Cartesian axes

     site n.  atom      mass           positions (alat units)
        1     Pb 207.2000   tau(    1) = (    0.00000    0.00000    0.00000  )

     Computing dynamical matrix for 
                    q = (   0.4166667  -0.0833333   0.5833333 )
 
     No symmetry!

     G cutoff =  321.3563  (   5985 G-vectors)     FFT grid: ( 25, 25, 25)
     number of k points=   432

     PseudoPot. # 1 for Pb read from file:
     ./Pb_ONCV_PBE-1.2.upf
     MD5 check sum: 7f27c247474026287e0dbe0f3167d60b
     Pseudo is Norm-conserving, Zval = 14.0
     Generated using ONCVPSP code by D. R. Hamann
     Using radial grid of  602 points,  8 beta functions with: 
                l(1) =   0
                l(2) =   0
                l(3) =   1
                l(4) =   1
                l(5) =   2
                l(6) =   2
                l(7) =   3
                l(8) =   3


     Atomic displacements:
     There are    3 irreducible representations

     Representation     1      1 modes -  To be done

     Representation     2      1 modes -  To be done

     Representation     3      1 modes -  To be done


     PHONON       :     49.34s CPU     58.93s WALL

     Reading dVscf from file dv
     Reading dynamics matrix from file matdyn10

     Diagonalizing the dynamical matrix

     q = (    0.416666667  -0.083333333   0.583333333 ) 

 **************************************************************************
     freq (    1) =       1.162209 [THz] =      38.767127 [cm-1]
     freq (    2) =       1.514943 [THz] =      50.533074 [cm-1]
     freq (    3) =       1.967791 [THz] =      65.638439 [cm-1]
 **************************************************************************
 [elph_scdft]  write elph.dat with symmetries (only on Fermi surfaces)
 [elph_scdft]   Lowest band which contains FS :            7
 [elph_scdft]  Highest band which contains FS :            8
 [elph_scdft]    # of bands which contains FS :            2

     Calculation of q =    0.2500000   0.0833333   0.4166667
     Message from routine kpoint_grid:
     ATTENTION: skip check of k-points equivalence
     [opt_tetra]  Optimized tetrahedron method is used.
 
     G-vector sticks info
     --------------------
     sticks:   dense  smooth     PW     G-vecs:    dense   smooth      PW
     Sum         433     433    163                 5985     5985    1291
 
     Using Slab Decomposition
 

     Title: 
     Electron-phonon matrix                                                     


     bravais-lattice index     =            2
     lattice parameter (alat)  =       9.5194  a.u.
     unit-cell volume          =     215.6591 (a.u.)^3
     number of atoms/cell      =            1
     number of atomic types    =            1
     number of electrons       =        14.00
     number of Kohn-Sham states=           11
     kinetic-energy cutoff     =      35.0000  Ry
     charge density cutoff     =     140.0000  Ry
     Exchange-correlation= PBE
                           (   1   4   3   4   0   0   0)

     celldm(1)=   9.519393  celldm(2)=   0.000000  celldm(3)=   0.000000
     celldm(4)=   0.000000  celldm(5)=   0.000000  celldm(6)=   0.000000

     crystal axes: (cart. coord. in units of alat)
               a(1) = (  -0.500000   0.000000   0.500000 )  
               a(2) = (   0.000000   0.500000   0.500000 )  
               a(3) = (  -0.500000   0.500000   0.000000 )  

     reciprocal axes: (cart. coord. in units 2 pi/alat)
               b(1) = ( -1.000000 -1.000000  1.000000 )  
               b(2) = (  1.000000  1.000000  1.000000 )  
               b(3) = ( -1.000000  1.000000 -1.000000 )  


     PseudoPot. # 1 for Pb read from file:
     ./Pb_ONCV_PBE-1.2.upf
     MD5 check sum: 7f27c247474026287e0dbe0f3167d60b
     Pseudo is Norm-conserving, Zval = 14.0
     Generated using ONCVPSP code by D. R. Hamann
     Using radial grid of  602 points,  8 beta functions with: 
                l(1) =   0
                l(2) =   0
                l(3) =   1
                l(4) =   1
                l(5) =   2
                l(6) =   2
                l(7) =   3
                l(8) =   3

     atomic species   valence    mass     pseudopotential
        Pb            14.00   207.20000     Pb( 1.00)

     48 Sym. Ops., with inversion, found



   Cartesian axes

     site n.     atom                  positions (alat units)
         1           Pb  tau(   1) = (   0.0000000   0.0000000   0.0000000  )

     number of k points=   432 (tetrahedron method)

     Number of k-points >= 100: set verbosity='high' to print them.

     Dense  grid:     5985 G-vectors     FFT dimensions: (  25,  25,  25)

     Estimated max dynamical RAM per process >       5.84 MB

     Estimated total dynamical RAM >      46.68 MB

     The potential is recalculated from file :
     ./_ph0/pwscf.q_11/pwscf.save/charge-density

     Starting wfcs are    0 atomic +   11 random wfcs

     Band Structure Calculation
     Davidson diagonalization with overlap

     ethr =  7.14E-11,  avg # of iterations = 20.8

     total cpu time spent up to now is       52.0 secs

     End of band structure calculation

     Number of k-points >= 100: set verbosity='high' to print the bands.

     the Fermi energy is    11.5662 ev

     Writing output data file ./_ph0/pwscf.q_11/pwscf.save/
 
     [dfpt_tetra]  Dos(E_F)[/Ry] :   0.9223183E+01

     Electron-phonon matrix                                                     

     bravais-lattice index     =            2
     lattice parameter (alat)  =       9.5194  a.u.
     unit-cell volume          =     215.6591 (a.u.)^3
     number of atoms/cell      =            1
     number of atomic types    =            1
     kinetic-energy cut-off    =      35.0000  Ry
     charge density cut-off    =     140.0000  Ry
     convergence threshold     =      1.0E-12
     beta                      =       0.7000
     number of iterations used =            4
     Exchange-correlation= PBE
                           (   1   4   3   4   0   0   0)


     celldm(1)=    9.51939  celldm(2)=    0.00000  celldm(3)=    0.00000
     celldm(4)=    0.00000  celldm(5)=    0.00000  celldm(6)=    0.00000

     crystal axes: (cart. coord. in units of alat)
               a(1) = ( -0.5000  0.0000  0.5000 )  
               a(2) = (  0.0000  0.5000  0.5000 )  
               a(3) = ( -0.5000  0.5000  0.0000 )  

     reciprocal axes: (cart. coord. in units 2 pi/alat)
               b(1) = ( -1.0000 -1.0000  1.0000 )  
               b(2) = (  1.0000  1.0000  1.0000 )  
               b(3) = ( -1.0000  1.0000 -1.0000 )  


     Atoms inside the unit cell: 

     Cartesian axes

     site n.  atom      mass           positions (alat units)
        1     Pb 207.2000   tau(    1) = (    0.00000    0.00000    0.00000  )

     Computing dynamical matrix for 
                    q = (   0.2500000   0.0833333   0.4166667 )
 
     No symmetry!

     G cutoff =  321.3563  (   5985 G-vectors)     FFT grid: ( 25, 25, 25)
     number of k points=   432

     PseudoPot. # 1 for Pb read from file:
     ./Pb_ONCV_PBE-1.2.upf
     MD5 check sum: 7f27c247474026287e0dbe0f3167d60b
     Pseudo is Norm-conserving, Zval = 14.0
     Generated using ONCVPSP code by D. R. Hamann
     Using radial grid of  602 points,  8 beta functions with: 
                l(1) =   0
                l(2) =   0
                l(3) =   1
                l(4) =   1
                l(5) =   2
                l(6) =   2
                l(7) =   3
                l(8) =   3


     Atomic displacements:
     There are    3 irreducible representations

     Representation     1      1 modes -  To be done

     Representation     2      1 modes -  To be done

     Representation     3      1 modes -  To be done


     PHONON       :     54.20s CPU   1m 3.95s WALL

     Reading dVscf from file dv
     Reading dynamics matrix from file matdyn11

     Diagonalizing the dynamical matrix

     q = (    0.250000000   0.083333333   0.416666667 ) 

 **************************************************************************
     freq (    1) =       0.914787 [THz] =      30.514016 [cm-1]
     freq (    2) =       1.126963 [THz] =      37.591451 [cm-1]
     freq (    3) =       1.700299 [THz] =      56.715879 [cm-1]
 **************************************************************************
 [elph_scdft]  write elph.dat with symmetries (only on Fermi surfaces)
 [elph_scdft]   Lowest band which contains FS :            7
 [elph_scdft]  Highest band which contains FS :            8
 [elph_scdft]    # of bands which contains FS :            2

     Calculation of q =   -0.0833333   0.7500000   0.0833333
     Message from routine kpoint_grid:
     ATTENTION: skip check of k-points equivalence
     [opt_tetra]  Optimized tetrahedron method is used.
 
     G-vector sticks info
     --------------------
     sticks:   dense  smooth     PW     G-vecs:    dense   smooth      PW
     Sum         433     433    163                 5985     5985    1411
 
     Using Slab Decomposition
 

     Title: 
     Electron-phonon matrix                                                     


     bravais-lattice index     =            2
     lattice parameter (alat)  =       9.5194  a.u.
     unit-cell volume          =     215.6591 (a.u.)^3
     number of atoms/cell      =            1
     number of atomic types    =            1
     number of electrons       =        14.00
     number of Kohn-Sham states=           11
     kinetic-energy cutoff     =      35.0000  Ry
     charge density cutoff     =     140.0000  Ry
     Exchange-correlation= PBE
                           (   1   4   3   4   0   0   0)

     celldm(1)=   9.519393  celldm(2)=   0.000000  celldm(3)=   0.000000
     celldm(4)=   0.000000  celldm(5)=   0.000000  celldm(6)=   0.000000

     crystal axes: (cart. coord. in units of alat)
               a(1) = (  -0.500000   0.000000   0.500000 )  
               a(2) = (   0.000000   0.500000   0.500000 )  
               a(3) = (  -0.500000   0.500000   0.000000 )  

     reciprocal axes: (cart. coord. in units 2 pi/alat)
               b(1) = ( -1.000000 -1.000000  1.000000 )  
               b(2) = (  1.000000  1.000000  1.000000 )  
               b(3) = ( -1.000000  1.000000 -1.000000 )  


     PseudoPot. # 1 for Pb read from file:
     ./Pb_ONCV_PBE-1.2.upf
     MD5 check sum: 7f27c247474026287e0dbe0f3167d60b
     Pseudo is Norm-conserving, Zval = 14.0
     Generated using ONCVPSP code by D. R. Hamann
     Using radial grid of  602 points,  8 beta functions with: 
                l(1) =   0
                l(2) =   0
                l(3) =   1
                l(4) =   1
                l(5) =   2
                l(6) =   2
                l(7) =   3
                l(8) =   3

     atomic species   valence    mass     pseudopotential
        Pb            14.00   207.20000     Pb( 1.00)

     48 Sym. Ops., with inversion, found



   Cartesian axes

     site n.     atom                  positions (alat units)
         1           Pb  tau(   1) = (   0.0000000   0.0000000   0.0000000  )

     number of k points=   432 (tetrahedron method)

     Number of k-points >= 100: set verbosity='high' to print them.

     Dense  grid:     5985 G-vectors     FFT dimensions: (  25,  25,  25)

     Estimated max dynamical RAM per process >       5.87 MB

     Estimated total dynamical RAM >      46.96 MB

     The potential is recalculated from file :
     ./_ph0/pwscf.q_12/pwscf.save/charge-density

     Starting wfcs are    0 atomic +   11 random wfcs

     Band Structure Calculation
     Davidson diagonalization with overlap

     ethr =  7.14E-11,  avg # of iterations = 20.8

     total cpu time spent up to now is       56.6 secs

     End of band structure calculation

     Number of k-points >= 100: set verbosity='high' to print the bands.

     the Fermi energy is    11.5662 ev

     Writing output data file ./_ph0/pwscf.q_12/pwscf.save/
 
     [dfpt_tetra]  Dos(E_F)[/Ry] :   0.9223183E+01

     Electron-phonon matrix                                                     

     bravais-lattice index     =            2
     lattice parameter (alat)  =       9.5194  a.u.
[...]

     End of band structure calculation

     Number of k-points >= 100: set verbosity='high' to print the bands.

     the Fermi energy is    11.5662 ev

     Writing output data file ./_ph0/pwscf.q_26/pwscf.save/
 
     [dfpt_tetra]  Dos(E_F)[/Ry] :   0.9223183E+01

     Electron-phonon matrix                                                     

     bravais-lattice index     =            2
     lattice parameter (alat)  =       9.5194  a.u.
     unit-cell volume          =     215.6591 (a.u.)^3
     number of atoms/cell      =            1
     number of atomic types    =            1
     kinetic-energy cut-off    =      35.0000  Ry
     charge density cut-off    =     140.0000  Ry
     convergence threshold     =      1.0E-12
     beta                      =       0.7000
     number of iterations used =            4
     Exchange-correlation= PBE
                           (   1   4   3   4   0   0   0)


     celldm(1)=    9.51939  celldm(2)=    0.00000  celldm(3)=    0.00000
     celldm(4)=    0.00000  celldm(5)=    0.00000  celldm(6)=    0.00000

     crystal axes: (cart. coord. in units of alat)
               a(1) = ( -0.5000  0.0000  0.5000 )  
               a(2) = (  0.0000  0.5000  0.5000 )  
               a(3) = ( -0.5000  0.5000  0.0000 )  

     reciprocal axes: (cart. coord. in units 2 pi/alat)
               b(1) = ( -1.0000 -1.0000  1.0000 )  
               b(2) = (  1.0000  1.0000  1.0000 )  
               b(3) = ( -1.0000  1.0000 -1.0000 )  


     Atoms inside the unit cell: 

     Cartesian axes

     site n.  atom      mass           positions (alat units)
        1     Pb 207.2000   tau(    1) = (    0.00000    0.00000    0.00000  )

     Computing dynamical matrix for 
                    q = (  -0.2500000  -1.0833333   0.2500000 )
 
      2 Sym.Ops. (no q -> -q+G )


     G cutoff =  321.3563  (   5985 G-vectors)     FFT grid: ( 25, 25, 25)
     number of k points=   432

     PseudoPot. # 1 for Pb read from file:
     ./Pb_ONCV_PBE-1.2.upf
     MD5 check sum: 7f27c247474026287e0dbe0f3167d60b
     Pseudo is Norm-conserving, Zval = 14.0
     Generated using ONCVPSP code by D. R. Hamann
     Using radial grid of  602 points,  8 beta functions with: 
                l(1) =   0
                l(2) =   0
                l(3) =   1
                l(4) =   1
                l(5) =   2
                l(6) =   2
                l(7) =   3
                l(8) =   3


     Atomic displacements:
     There are    3 irreducible representations

     Representation     1      1 modes -  To be done

     Representation     2      1 modes -  To be done

     Representation     3      1 modes -  To be done


     PHONON       :   2m 7.02s CPU   2m19.85s WALL

     Reading dVscf from file dv
     Reading dynamics matrix from file matdyn26

     Diagonalizing the dynamical matrix

     q = (   -0.250000000  -1.083333333   0.250000000 ) 

 **************************************************************************
     freq (    1) =       1.458365 [THz] =      48.645804 [cm-1]
     freq (    2) =       1.740948 [THz] =      58.071785 [cm-1]
     freq (    3) =       1.997231 [THz] =      66.620466 [cm-1]
 **************************************************************************
 [elph_scdft]  write elph.dat with symmetries (only on Fermi surfaces)
 [elph_scdft]   Lowest band which contains FS :            7
 [elph_scdft]  Highest band which contains FS :            8
 [elph_scdft]    # of bands which contains FS :            2

     Calculation of q =   -0.4166667   0.4166667   0.4166667
     Message from routine kpoint_grid:
     ATTENTION: skip check of k-points equivalence
     [opt_tetra]  Optimized tetrahedron method is used.
 
     G-vector sticks info
     --------------------
     sticks:   dense  smooth     PW     G-vecs:    dense   smooth      PW
     Sum         433     433    151                 5985     5985    1243
 
     Using Slab Decomposition
 

     Title: 
     Electron-phonon matrix                                                     


     bravais-lattice index     =            2
     lattice parameter (alat)  =       9.5194  a.u.
     unit-cell volume          =     215.6591 (a.u.)^3
     number of atoms/cell      =            1
     number of atomic types    =            1
     number of electrons       =        14.00
     number of Kohn-Sham states=           11
     kinetic-energy cutoff     =      35.0000  Ry
     charge density cutoff     =     140.0000  Ry
     Exchange-correlation= PBE
                           (   1   4   3   4   0   0   0)

     celldm(1)=   9.519393  celldm(2)=   0.000000  celldm(3)=   0.000000
     celldm(4)=   0.000000  celldm(5)=   0.000000  celldm(6)=   0.000000

     crystal axes: (cart. coord. in units of alat)
               a(1) = (  -0.500000   0.000000   0.500000 )  
               a(2) = (   0.000000   0.500000   0.500000 )  
               a(3) = (  -0.500000   0.500000   0.000000 )  

     reciprocal axes: (cart. coord. in units 2 pi/alat)
               b(1) = ( -1.000000 -1.000000  1.000000 )  
               b(2) = (  1.000000  1.000000  1.000000 )  
               b(3) = ( -1.000000  1.000000 -1.000000 )  


     PseudoPot. # 1 for Pb read from file:
     ./Pb_ONCV_PBE-1.2.upf
     MD5 check sum: 7f27c247474026287e0dbe0f3167d60b
     Pseudo is Norm-conserving, Zval = 14.0
     Generated using ONCVPSP code by D. R. Hamann
     Using radial grid of  602 points,  8 beta functions with: 
                l(1) =   0
                l(2) =   0
                l(3) =   1
                l(4) =   1
                l(5) =   2
                l(6) =   2
                l(7) =   3
                l(8) =   3

     atomic species   valence    mass     pseudopotential
        Pb            14.00   207.20000     Pb( 1.00)

     48 Sym. Ops., with inversion, found



   Cartesian axes

     site n.     atom                  positions (alat units)
         1           Pb  tau(   1) = (   0.0000000   0.0000000   0.0000000  )

     number of k points=   432 (tetrahedron method)

     Number of k-points >= 100: set verbosity='high' to print them.

     Dense  grid:     5985 G-vectors     FFT dimensions: (  25,  25,  25)

     Estimated max dynamical RAM per process >       5.86 MB

     Estimated total dynamical RAM >      46.91 MB

     The potential is recalculated from file :
     ./_ph0/pwscf.q_27/pwscf.save/charge-density

     Starting wfcs are    0 atomic +   11 random wfcs

     Band Structure Calculation
     Davidson diagonalization with overlap

     ethr =  7.14E-11,  avg # of iterations = 20.7

     total cpu time spent up to now is      124.0 secs

     End of band structure calculation

     Number of k-points >= 100: set verbosity='high' to print the bands.

     the Fermi energy is    11.5662 ev

     Writing output data file ./_ph0/pwscf.q_27/pwscf.save/
 
     [dfpt_tetra]  Dos(E_F)[/Ry] :   0.9223183E+01

     Electron-phonon matrix                                                     

     bravais-lattice index     =            2
     lattice parameter (alat)  =       9.5194  a.u.
     unit-cell volume          =     215.6591 (a.u.)^3
     number of atoms/cell      =            1
     number of atomic types    =            1
     kinetic-energy cut-off    =      35.0000  Ry
     charge density cut-off    =     140.0000  Ry
     convergence threshold     =      1.0E-12
     beta                      =       0.7000
     number of iterations used =            4
     Exchange-correlation= PBE
                           (   1   4   3   4   0   0   0)


     celldm(1)=    9.51939  celldm(2)=    0.00000  celldm(3)=    0.00000
     celldm(4)=    0.00000  celldm(5)=    0.00000  celldm(6)=    0.00000

     crystal axes: (cart. coord. in units of alat)
               a(1) = ( -0.5000  0.0000  0.5000 )  
               a(2) = (  0.0000  0.5000  0.5000 )  
               a(3) = ( -0.5000  0.5000  0.0000 )  

     reciprocal axes: (cart. coord. in units 2 pi/alat)
               b(1) = ( -1.0000 -1.0000  1.0000 )  
               b(2) = (  1.0000  1.0000  1.0000 )  
               b(3) = ( -1.0000  1.0000 -1.0000 )  


     Atoms inside the unit cell: 

     Cartesian axes

     site n.  atom      mass           positions (alat units)
        1     Pb 207.2000   tau(    1) = (    0.00000    0.00000    0.00000  )

     Computing dynamical matrix for 
                    q = (  -0.4166667   0.4166667   0.4166667 )
 
      6 Sym.Ops. (no q -> -q+G )


     G cutoff =  321.3563  (   5985 G-vectors)     FFT grid: ( 25, 25, 25)
     number of k points=   432

     PseudoPot. # 1 for Pb read from file:
     ./Pb_ONCV_PBE-1.2.upf
     MD5 check sum: 7f27c247474026287e0dbe0f3167d60b
     Pseudo is Norm-conserving, Zval = 14.0
     Generated using ONCVPSP code by D. R. Hamann
     Using radial grid of  602 points,  8 beta functions with: 
                l(1) =   0
                l(2) =   0
                l(3) =   1
                l(4) =   1
                l(5) =   2
                l(6) =   2
                l(7) =   3
                l(8) =   3


     Atomic displacements:
     There are    2 irreducible representations

     Representation     1      1 modes -  To be done

     Representation     2      2 modes -  To be done


     PHONON       :   2m11.88s CPU   2m24.85s WALL

     Reading dVscf from file dv
     Reading dynamics matrix from file matdyn27

     Diagonalizing the dynamical matrix

     q = (   -0.416666667   0.416666667   0.416666667 ) 

 **************************************************************************
     freq (    1) =       1.048965 [THz] =      34.989695 [cm-1]
     freq (    2) =       1.048965 [THz] =      34.989695 [cm-1]
     freq (    3) =       1.997483 [THz] =      66.628855 [cm-1]
 **************************************************************************
 [elph_scdft]  write elph.dat with symmetries (only on Fermi surfaces)
 [elph_scdft]   Lowest band which contains FS :            7
 [elph_scdft]  Highest band which contains FS :            8
 [elph_scdft]    # of bands which contains FS :            2

     Calculation of q =    0.4166667  -0.4166667   1.2500000
     Message from routine kpoint_grid:
     ATTENTION: skip check of k-points equivalence
     [opt_tetra]  Optimized tetrahedron method is used.
 
     G-vector sticks info
     --------------------
     sticks:   dense  smooth     PW     G-vecs:    dense   smooth      PW
     Sum         433     433    187                 5985     5985    1687
 
     Using Slab Decomposition
 

     Title: 
     Electron-phonon matrix                                                     


     bravais-lattice index     =            2
     lattice parameter (alat)  =       9.5194  a.u.
     unit-cell volume          =     215.6591 (a.u.)^3
     number of atoms/cell      =            1
     number of atomic types    =            1
     number of electrons       =        14.00
     number of Kohn-Sham states=           11
     kinetic-energy cutoff     =      35.0000  Ry
     charge density cutoff     =     140.0000  Ry
     Exchange-correlation= PBE
                           (   1   4   3   4   0   0   0)

     celldm(1)=   9.519393  celldm(2)=   0.000000  celldm(3)=   0.000000
     celldm(4)=   0.000000  celldm(5)=   0.000000  celldm(6)=   0.000000

     crystal axes: (cart. coord. in units of alat)
               a(1) = (  -0.500000   0.000000   0.500000 )  
               a(2) = (   0.000000   0.500000   0.500000 )  
               a(3) = (  -0.500000   0.500000   0.000000 )  

     reciprocal axes: (cart. coord. in units 2 pi/alat)
               b(1) = ( -1.000000 -1.000000  1.000000 )  
               b(2) = (  1.000000  1.000000  1.000000 )  
               b(3) = ( -1.000000  1.000000 -1.000000 )  


     PseudoPot. # 1 for Pb read from file:
     ./Pb_ONCV_PBE-1.2.upf
     MD5 check sum: 7f27c247474026287e0dbe0f3167d60b
     Pseudo is Norm-conserving, Zval = 14.0
     Generated using ONCVPSP code by D. R. Hamann
     Using radial grid of  602 points,  8 beta functions with: 
                l(1) =   0
                l(2) =   0
                l(3) =   1
                l(4) =   1
                l(5) =   2
                l(6) =   2
                l(7) =   3
                l(8) =   3

     atomic species   valence    mass     pseudopotential
        Pb            14.00   207.20000     Pb( 1.00)

     48 Sym. Ops., with inversion, found



   Cartesian axes

     site n.     atom                  positions (alat units)
         1           Pb  tau(   1) = (   0.0000000   0.0000000   0.0000000  )

     number of k points=   432 (tetrahedron method)

     Number of k-points >= 100: set verbosity='high' to print them.

     Dense  grid:     5985 G-vectors     FFT dimensions: (  25,  25,  25)

     Estimated max dynamical RAM per process >       5.95 MB

     Estimated total dynamical RAM >      47.59 MB

     The potential is recalculated from file :
     ./_ph0/pwscf.q_28/pwscf.save/charge-density

     Starting wfcs are    0 atomic +   11 random wfcs

     Band Structure Calculation
     Davidson diagonalization with overlap

     ethr =  7.14E-11,  avg # of iterations = 20.8

     total cpu time spent up to now is      128.5 secs

     End of band structure calculation

     Number of k-points >= 100: set verbosity='high' to print the bands.

     the Fermi energy is    11.5662 ev

     Writing output data file ./_ph0/pwscf.q_28/pwscf.save/
 
     [dfpt_tetra]  Dos(E_F)[/Ry] :   0.9223183E+01

     Electron-phonon matrix                                                     

     bravais-lattice index     =            2
     lattice parameter (alat)  =       9.5194  a.u.
     unit-cell volume          =     215.6591 (a.u.)^3
     number of atoms/cell      =            1
     number of atomic types    =            1
     kinetic-energy cut-off    =      35.0000  Ry
     charge density cut-off    =     140.0000  Ry
     convergence threshold     =      1.0E-12
     beta                      =       0.7000
     number of iterations used =            4
     Exchange-correlation= PBE
                           (   1   4   3   4   0   0   0)


     celldm(1)=    9.51939  celldm(2)=    0.00000  celldm(3)=    0.00000
     celldm(4)=    0.00000  celldm(5)=    0.00000  celldm(6)=    0.00000

     crystal axes: (cart. coord. in units of alat)
               a(1) = ( -0.5000  0.0000  0.5000 )  
               a(2) = (  0.0000  0.5000  0.5000 )  
               a(3) = ( -0.5000  0.5000  0.0000 )  

     reciprocal axes: (cart. coord. in units 2 pi/alat)
               b(1) = ( -1.0000 -1.0000  1.0000 )  
               b(2) = (  1.0000  1.0000  1.0000 )  
               b(3) = ( -1.0000  1.0000 -1.0000 )  


     Atoms inside the unit cell: 

     Cartesian axes

     site n.  atom      mass           positions (alat units)
        1     Pb 207.2000   tau(    1) = (    0.00000    0.00000    0.00000  )

     Computing dynamical matrix for 
                    q = (   0.4166667  -0.4166667   1.2500000 )
 
      2 Sym.Ops. (no q -> -q+G )


     G cutoff =  321.3563  (   5985 G-vectors)     FFT grid: ( 25, 25, 25)
     number of k points=   432

     PseudoPot. # 1 for Pb read from file:
     ./Pb_ONCV_PBE-1.2.upf
     MD5 check sum: 7f27c247474026287e0dbe0f3167d60b
     Pseudo is Norm-conserving, Zval = 14.0
     Generated using ONCVPSP code by D. R. Hamann
     Using radial grid of  602 points,  8 beta functions with: 
                l(1) =   0
                l(2) =   0
                l(3) =   1
                l(4) =   1
                l(5) =   2
                l(6) =   2
                l(7) =   3
                l(8) =   3


     Atomic displacements:
     There are    3 irreducible representations

     Representation     1      1 modes -  To be done

     Representation     2      1 modes -  To be done

     Representation     3      1 modes -  To be done


     PHONON       :   2m16.72s CPU   2m30.20s WALL

     Reading dVscf from file dv
     Reading dynamics matrix from file matdyn28

     Diagonalizing the dynamical matrix

     q = (    0.416666667  -0.416666667   1.250000000 ) 

 **************************************************************************
     freq (    1) =       1.176632 [THz] =      39.248235 [cm-1]
     freq (    2) =       1.364444 [THz] =      45.512941 [cm-1]
     freq (    3) =       2.067146 [THz] =      68.952554 [cm-1]
 **************************************************************************
 [elph_scdft]  write elph.dat with symmetries (only on Fermi surfaces)
 [elph_scdft]   Lowest band which contains FS :            7
 [elph_scdft]  Highest band which contains FS :            8
 [elph_scdft]    # of bands which contains FS :            2
 
     init_run     :      0.67s CPU      1.45s WALL (      28 calls)
     electrons    :    122.53s CPU    125.98s WALL (      28 calls)

     Called by init_run:
     wfcinit      :      0.01s CPU      0.02s WALL (      28 calls)
     potinit      :      0.12s CPU      0.74s WALL (      28 calls)
     hinit0       :      0.36s CPU      0.37s WALL (      28 calls)

     Called by electrons:
     c_bands      :    120.24s CPU    123.18s WALL (      28 calls)
     v_of_rho     :      0.11s CPU      0.13s WALL (      29 calls)

     Called by c_bands:
     init_us_2    :      0.81s CPU      0.84s WALL (    4455 calls)
     cegterg      :     95.77s CPU     97.07s WALL (    2451 calls)

     Called by *egterg:
     cdiaghg      :      7.33s CPU      7.73s WALL (   35373 calls)
     h_psi        :     77.97s CPU     78.90s WALL (   37824 calls)
     g_psi        :      0.63s CPU      0.64s WALL (   33861 calls)

     Called by h_psi:
     h_psi:calbec :      2.14s CPU      2.34s WALL (   37824 calls)
     vloc_psi     :     73.28s CPU     73.98s WALL (   37824 calls)
     add_vuspsi   :      2.26s CPU      2.30s WALL (   37824 calls)

     General routines
     calbec       :      2.30s CPU      2.53s WALL (   40848 calls)
     fft          :      0.05s CPU      4.32s WALL (     374 calls)
     ffts         :      0.28s CPU      0.30s WALL (    2268 calls)
     fftw         :     76.41s CPU     77.20s WALL (  590220 calls)
     davcio       :      0.24s CPU      2.80s WALL (    7491 calls)
 
     Parallel routines
 
     PHONON       :   2m17.13s CPU   2m30.68s WALL

     INITIALIZATION: 
     phq_setup    :      0.70s CPU      0.87s WALL (      28 calls)
     phq_init     :      0.79s CPU      0.84s WALL (      28 calls)
 
     phq_init     :      0.79s CPU      0.84s WALL (      28 calls)
     init_vloc    :      0.01s CPU      0.01s WALL (      29 calls)
     init_us_1    :      0.36s CPU      0.37s WALL (      29 calls)
 
 
 
 
     dvqpsi_us    :      9.51s CPU      9.69s WALL (    2268 calls)
 
     dvqpsi_us    :      9.51s CPU      9.69s WALL (    2268 calls)
     dvqpsi_us_on :      2.15s CPU      2.18s WALL (    2268 calls)
 
 
     h_psi        :     77.97s CPU     78.90s WALL (   37824 calls)
 
     h_psi        :     77.97s CPU     78.90s WALL (   37824 calls)
     add_vuspsi   :      2.26s CPU      2.30s WALL (   37824 calls)
 
 
 
      Electron-phonon coupling
     elphon       :     11.47s CPU     14.32s WALL (      28 calls)
     elphel       :     11.30s CPU     11.55s WALL (      81 calls)
 
      General routines
     calbec       :      2.30s CPU      2.53s WALL (   40848 calls)
     fft          :      0.05s CPU      4.32s WALL (     374 calls)
     ffts         :      0.28s CPU      0.30s WALL (    2268 calls)
     fftw         :     76.41s CPU     77.20s WALL (  590220 calls)
     davcio       :      0.24s CPU      2.80s WALL (    7491 calls)
 
 
     PHONON       :   2m17.13s CPU   2m30.68s WALL

 
   This run was terminated on:  11:13:15  27Nov2023            

=------------------------------------------------------------------------------=
   JOB DONE.
=------------------------------------------------------------------------------=
