
     Program PHONON v.6.7GPU starts on 27Nov2023 at 10:44:31 

     This program is part of the open-source Quantum ESPRESSO suite
     for quantum simulation of materials; please cite
         "P. Giannozzi et al., J. Phys.:Condens. Matter 21 395502 (2009);
         "P. Giannozzi et al., J. Phys.:Condens. Matter 29 465901 (2017);
         "P. Giannozzi et al., J. Chem. Phys. 152 154105 (2020);
          URL http://www.quantum-espresso.org", 
     in publications or presentations arising from this work. More details at
     http://www.quantum-espresso.org/quote

     Parallel version (MPI & OpenMP), running on    1024 processor cores
     Number of MPI processes:              1024
     Threads/MPI process:                     1

     MPI processes distributed on     8 nodes
     K-points division:     npool     =     128
     R & G space division:  proc/nbgrp/npool/nimage =       8
     Waiting for input...
     Reading input from standard input

     Reading xml data from directory:

     ./pwscf.save/

     IMPORTANT: XC functional enforced from input :
     Exchange-correlation= PBE
                           (   1   4   3   4   0   0   0)
     Any further DFT definition will be discarded
     Please, verify this is what you really want

 
     Parallelization info
     --------------------
     sticks:   dense  smooth     PW     G-vecs:    dense   smooth      PW
     Min          54      54     18                  747      747     142
     Max          55      55     20                  750      750     143
     Sum         433     433    151                 5985     5985    1139
 
     Using Slab Decomposition
 
     Message from routine divide_et_impera:
     suboptimal parallelization: some nodes have no k-points
     Reading collected, re-writing distributed wavefunctions


     Dynamical matrices for ( 6, 6, 6)  uniform grid of q-points
     With a half shift
     (  28 q-points):
       N         xq(1)         xq(2)         xq(3) 
       1  -0.083333333   0.083333333   0.083333333
       2  -0.250000000   0.250000000  -0.083333333
       3  -0.416666667   0.416666667  -0.250000000
       4   0.416666667  -0.416666667   0.583333333
       5   0.250000000  -0.250000000   0.416666667
       6   0.083333333  -0.083333333   0.250000000
       7  -0.083333333   0.416666667   0.083333333
       8  -0.250000000   0.583333333  -0.083333333
       9   0.583333333  -0.250000000   0.750000000
      10   0.416666667  -0.083333333   0.583333333
      11   0.250000000   0.083333333   0.416666667
      12  -0.083333333   0.750000000   0.083333333
      13   0.750000000  -0.083333333   0.916666667
      14   0.583333333   0.083333333   0.750000000
      15   0.416666667   0.250000000   0.583333333
      16  -0.083333333  -0.916666667   0.083333333
      17  -0.250000000  -0.750000000  -0.083333333
      18  -0.083333333  -0.583333333   0.083333333
      19  -0.250000000   0.250000000   0.250000000
      20  -0.416666667   0.416666667   0.083333333
      21   0.416666667  -0.416666667   0.916666667
      22   0.250000000  -0.250000000   0.750000000
      23  -0.250000000   0.583333333   0.250000000
      24   0.583333333  -0.250000000   1.083333333
      25   0.416666667  -0.083333333   0.916666667
      26  -0.250000000  -1.083333333   0.250000000
      27  -0.416666667   0.416666667   0.416666667
      28   0.416666667  -0.416666667   1.250000000
     Because shifted q grid is used, q2r will not work !

     Saving dvscf to file. Distribute only q points, not irreducible represetations.

     Calculation of q =   -0.0833333   0.0833333   0.0833333

     Subspace diagonalization in iterative solution of the eigenvalue problem:
     a serial algorithm will be used

     [opt_tetra]  Optimized tetrahedron method is used.
 
     Parallelization info
     --------------------
     sticks:   dense  smooth     PW     G-vecs:    dense   smooth      PW
     Min          54      54     18                  747      747     149
     Max          55      55     19                  750      750     152
     Sum         433     433    151                 5985     5985    1211
 
     Using Slab Decomposition
 

     Title: 
     Phonon frequency and deformation potential                                 


     bravais-lattice index     =            2
     lattice parameter (alat)  =       9.5194  a.u.
     unit-cell volume          =     215.6591 (a.u.)^3
     number of atoms/cell      =            1
     number of atomic types    =            1
     number of electrons       =        14.00
     number of Kohn-Sham states=           11
     kinetic-energy cutoff     =      35.0000  Ry
     charge density cutoff     =     140.0000  Ry
     Exchange-correlation= PBE
                           (   1   4   3   4   0   0   0)

     celldm(1)=   9.519393  celldm(2)=   0.000000  celldm(3)=   0.000000
     celldm(4)=   0.000000  celldm(5)=   0.000000  celldm(6)=   0.000000

     crystal axes: (cart. coord. in units of alat)
               a(1) = (  -0.500000   0.000000   0.500000 )  
               a(2) = (   0.000000   0.500000   0.500000 )  
               a(3) = (  -0.500000   0.500000   0.000000 )  

     reciprocal axes: (cart. coord. in units 2 pi/alat)
               b(1) = ( -1.000000 -1.000000  1.000000 )  
               b(2) = (  1.000000  1.000000  1.000000 )  
               b(3) = ( -1.000000  1.000000 -1.000000 )  


     PseudoPot. # 1 for Pb read from file:
     ./Pb_ONCV_PBE-1.2.upf
     MD5 check sum: 7f27c247474026287e0dbe0f3167d60b
     Pseudo is Norm-conserving, Zval = 14.0
     Generated using ONCVPSP code by D. R. Hamann
     Using radial grid of  602 points,  8 beta functions with: 
                l(1) =   0
                l(2) =   0
                l(3) =   1
                l(4) =   1
                l(5) =   2
                l(6) =   2
                l(7) =   3
                l(8) =   3

     atomic species   valence    mass     pseudopotential
        Pb            14.00   207.20000     Pb( 1.00)

     48 Sym. Ops., with inversion, found



   Cartesian axes

     site n.     atom                  positions (alat units)
         1           Pb  tau(   1) = (   0.0000000   0.0000000   0.0000000  )

     number of k points=   728 (tetrahedron method)

     Number of k-points >= 100: set verbosity='high' to print them.

     Dense  grid:     5985 G-vectors     FFT dimensions: (  25,  25,  25)

     Estimated max dynamical RAM per process >       2.85 MB

     Estimated total dynamical RAM >       2.85 GB

     The potential is recalculated from file :
     ./_ph0/pwscf.q_1/pwscf.save/charge-density

     Starting wfcs are    0 atomic +   11 random wfcs

     Band Structure Calculation
     Davidson diagonalization with overlap

     ethr =  7.14E-11,  avg # of iterations = 21.4

     total cpu time spent up to now is        5.3 secs

     End of band structure calculation

     Number of k-points >= 100: set verbosity='high' to print the bands.

     the Fermi energy is    11.5438 ev

     Writing output data file ./_ph0/pwscf.q_1/pwscf.save/
 
     [dfpt_tetra]  Dos(E_F)[/Ry] :   0.7203969E+01

     Phonon frequency and deformation potential                                 

     bravais-lattice index     =            2
     lattice parameter (alat)  =       9.5194  a.u.
     unit-cell volume          =     215.6591 (a.u.)^3
     number of atoms/cell      =            1
     number of atomic types    =            1
     kinetic-energy cut-off    =      35.0000  Ry
     charge density cut-off    =     140.0000  Ry
     convergence threshold     =      1.0E-15
     beta                      =       0.3000
     number of iterations used =            4
     Exchange-correlation= PBE
                           (   1   4   3   4   0   0   0)


     celldm(1)=    9.51939  celldm(2)=    0.00000  celldm(3)=    0.00000
     celldm(4)=    0.00000  celldm(5)=    0.00000  celldm(6)=    0.00000

     crystal axes: (cart. coord. in units of alat)
               a(1) = ( -0.5000  0.0000  0.5000 )  
               a(2) = (  0.0000  0.5000  0.5000 )  
               a(3) = ( -0.5000  0.5000  0.0000 )  

     reciprocal axes: (cart. coord. in units 2 pi/alat)
               b(1) = ( -1.0000 -1.0000  1.0000 )  
               b(2) = (  1.0000  1.0000  1.0000 )  
               b(3) = ( -1.0000  1.0000 -1.0000 )  


     Atoms inside the unit cell: 

     Cartesian axes

     site n.  atom      mass           positions (alat units)
        1     Pb 207.2000   tau(    1) = (    0.00000    0.00000    0.00000  )

     Computing dynamical matrix for 
                    q = (  -0.0833333   0.0833333   0.0833333 )
 
      6 Sym.Ops. (no q -> -q+G )


     G cutoff =  321.3563  (    749 G-vectors)     FFT grid: ( 25, 25, 25)
     number of k points=   728

     PseudoPot. # 1 for Pb read from file:
     ./Pb_ONCV_PBE-1.2.upf
     MD5 check sum: 7f27c247474026287e0dbe0f3167d60b
     Pseudo is Norm-conserving, Zval = 14.0
     Generated using ONCVPSP code by D. R. Hamann
     Using radial grid of  602 points,  8 beta functions with: 
                l(1) =   0
                l(2) =   0
                l(3) =   1
                l(4) =   1
                l(5) =   2
                l(6) =   2
                l(7) =   3
                l(8) =   3


     Atomic displacements:
     There are    2 irreducible representations

     Representation     1      1 modes -  To be done

     Representation     2      2 modes -  To be done



     Alpha used in Ewald sum =   1.4000
     PHONON       :      7.45s CPU     21.19s WALL



     Representation #   1 mode #   1

     Self-consistent Calculation

      iter #   1 total cpu time :    21.9 secs   av.it.:   5.6
      thresh= 1.000E-02 alpha_mix =  0.300 |ddv_scf|^2 =  2.515E+01

      iter #   2 total cpu time :    22.2 secs   av.it.:   8.1
      thresh= 1.000E-02 alpha_mix =  0.300 |ddv_scf|^2 =  1.861E+04

      iter #   3 total cpu time :    23.6 secs   av.it.:   8.1
      thresh= 1.000E-02 alpha_mix =  0.300 |ddv_scf|^2 =  1.242E-01

      iter #   4 total cpu time :    24.4 secs   av.it.:   3.4
      thresh= 1.000E-02 alpha_mix =  0.300 |ddv_scf|^2 =  2.434E-05

      iter #   5 total cpu time :    24.6 secs   av.it.:   4.8
      thresh= 4.934E-04 alpha_mix =  0.300 |ddv_scf|^2 =  3.120E-07

      iter #   6 total cpu time :    24.8 secs   av.it.:   5.9
      thresh= 5.586E-05 alpha_mix =  0.300 |ddv_scf|^2 =  1.160E-05

      iter #   7 total cpu time :    25.0 secs   av.it.:   2.1
      thresh= 3.406E-04 alpha_mix =  0.300 |ddv_scf|^2 =  1.367E-08

      iter #   8 total cpu time :    25.2 secs   av.it.:   6.7
      thresh= 1.169E-05 alpha_mix =  0.300 |ddv_scf|^2 =  3.692E-08

      iter #   9 total cpu time :    25.3 secs   av.it.:   4.8
      thresh= 1.921E-05 alpha_mix =  0.300 |ddv_scf|^2 =  1.505E-10

      iter #  10 total cpu time :    25.5 secs   av.it.:   6.0
      thresh= 1.227E-06 alpha_mix =  0.300 |ddv_scf|^2 =  2.313E-10

      iter #  11 total cpu time :    25.6 secs   av.it.:   5.9
      thresh= 1.521E-06 alpha_mix =  0.300 |ddv_scf|^2 =  5.428E-11

      iter #  12 total cpu time :    25.8 secs   av.it.:   4.4
      thresh= 7.367E-07 alpha_mix =  0.300 |ddv_scf|^2 =  6.200E-12

      iter #  13 total cpu time :    26.0 secs   av.it.:   5.8
      thresh= 2.490E-07 alpha_mix =  0.300 |ddv_scf|^2 =  1.132E-10

      iter #  14 total cpu time :    26.1 secs   av.it.:   4.2
      thresh= 1.064E-06 alpha_mix =  0.300 |ddv_scf|^2 =  9.389E-14

      iter #  15 total cpu time :    26.3 secs   av.it.:   6.1
      thresh= 3.064E-08 alpha_mix =  0.300 |ddv_scf|^2 =  4.241E-14

      iter #  16 total cpu time :    26.5 secs   av.it.:   6.2
      thresh= 2.059E-08 alpha_mix =  0.300 |ddv_scf|^2 =  5.102E-14

      iter #  17 total cpu time :    26.8 secs   av.it.:   4.4
      thresh= 2.259E-08 alpha_mix =  0.300 |ddv_scf|^2 =  7.297E-16

     End of self-consistent calculation

     Convergence has been achieved 


     Representation #   2 modes #   2   3

     Self-consistent Calculation

      iter #   1 total cpu time :    27.3 secs   av.it.:   4.8
      thresh= 1.000E-02 alpha_mix =  0.300 |ddv_scf|^2 =  1.545E-05

      iter #   2 total cpu time :    27.6 secs   av.it.:   6.5
      thresh= 3.930E-04 alpha_mix =  0.300 |ddv_scf|^2 =  1.001E-06

      iter #   3 total cpu time :    27.8 secs   av.it.:   7.0
      thresh= 1.000E-04 alpha_mix =  0.300 |ddv_scf|^2 =  1.496E-08

      iter #   4 total cpu time :    28.0 secs   av.it.:   7.3
      thresh= 1.223E-05 alpha_mix =  0.300 |ddv_scf|^2 =  1.456E-10

      iter #   5 total cpu time :    28.3 secs   av.it.:   6.8
      thresh= 1.207E-06 alpha_mix =  0.300 |ddv_scf|^2 =  4.909E-11

      iter #   6 total cpu time :    28.5 secs   av.it.:   7.1
      thresh= 7.007E-07 alpha_mix =  0.300 |ddv_scf|^2 =  3.400E-13

      iter #   7 total cpu time :    28.7 secs   av.it.:   7.8
      thresh= 5.831E-08 alpha_mix =  0.300 |ddv_scf|^2 =  4.679E-14

      iter #   8 total cpu time :    29.0 secs   av.it.:   7.5
      thresh= 2.163E-08 alpha_mix =  0.300 |ddv_scf|^2 =  2.900E-15

      iter #   9 total cpu time :    29.2 secs   av.it.:   6.6
      thresh= 5.385E-09 alpha_mix =  0.300 |ddv_scf|^2 =  1.231E-15

      iter #  10 total cpu time :    29.5 secs   av.it.:   7.4
      thresh= 3.509E-09 alpha_mix =  0.300 |ddv_scf|^2 =  4.088E-17

     End of self-consistent calculation

     Convergence has been achieved 
 
     Number of q in the star =    8
     List of q in the star:
          1  -0.083333333   0.083333333   0.083333333
          2   0.083333333   0.083333333   0.083333333
          3  -0.083333333  -0.083333333   0.083333333
          4   0.083333333  -0.083333333  -0.083333333
          5  -0.083333333   0.083333333  -0.083333333
          6   0.083333333   0.083333333  -0.083333333
          7   0.083333333  -0.083333333   0.083333333
          8  -0.083333333  -0.083333333  -0.083333333

     Diagonalizing the dynamical matrix

     q = (   -0.083333333   0.083333333   0.083333333 ) 

 **************************************************************************
     freq (    1) =       0.533894 [THz] =      17.808778 [cm-1]
     freq (    2) =       0.533894 [THz] =      17.808778 [cm-1]
     freq (    3) =       0.818309 [THz] =      27.295865 [cm-1]
 **************************************************************************

     Calculation of q =   -0.2500000   0.2500000  -0.0833333
     [opt_tetra]  Optimized tetrahedron method is used.
 
     Parallelization info
     --------------------
     sticks:   dense  smooth     PW     G-vecs:    dense   smooth      PW
     Min          54      54     18                  747      747     153
     Max          55      55     19                  750      750     156
     Sum         433     433    151                 5985     5985    1243
 
     Using Slab Decomposition
 

     Title: 
     Phonon frequency and deformation potential                                 


     bravais-lattice index     =            2
     lattice parameter (alat)  =       9.5194  a.u.
     unit-cell volume          =     215.6591 (a.u.)^3
     number of atoms/cell      =            1
     number of atomic types    =            1
     number of electrons       =        14.00
     number of Kohn-Sham states=           11
     kinetic-energy cutoff     =      35.0000  Ry
     charge density cutoff     =     140.0000  Ry
     Exchange-correlation= PBE
                           (   1   4   3   4   0   0   0)

     celldm(1)=   9.519393  celldm(2)=   0.000000  celldm(3)=   0.000000
     celldm(4)=   0.000000  celldm(5)=   0.000000  celldm(6)=   0.000000

     crystal axes: (cart. coord. in units of alat)
               a(1) = (  -0.500000   0.000000   0.500000 )  
               a(2) = (   0.000000   0.500000   0.500000 )  
               a(3) = (  -0.500000   0.500000   0.000000 )  

     reciprocal axes: (cart. coord. in units 2 pi/alat)
               b(1) = ( -1.000000 -1.000000  1.000000 )  
               b(2) = (  1.000000  1.000000  1.000000 )  
               b(3) = ( -1.000000  1.000000 -1.000000 )  


     PseudoPot. # 1 for Pb read from file:
     ./Pb_ONCV_PBE-1.2.upf
     MD5 check sum: 7f27c247474026287e0dbe0f3167d60b
     Pseudo is Norm-conserving, Zval = 14.0
     Generated using ONCVPSP code by D. R. Hamann
     Using radial grid of  602 points,  8 beta functions with: 
                l(1) =   0
                l(2) =   0
                l(3) =   1
                l(4) =   1
                l(5) =   2
                l(6) =   2
                l(7) =   3
                l(8) =   3

     atomic species   valence    mass     pseudopotential
        Pb            14.00   207.20000     Pb( 1.00)

     48 Sym. Ops., with inversion, found



   Cartesian axes

     site n.     atom                  positions (alat units)
         1           Pb  tau(   1) = (   0.0000000   0.0000000   0.0000000  )

     number of k points=  1872 (tetrahedron method)

     Number of k-points >= 100: set verbosity='high' to print them.

     Dense  grid:     5985 G-vectors     FFT dimensions: (  25,  25,  25)

     Estimated max dynamical RAM per process >       2.88 MB

     Estimated total dynamical RAM >       2.88 GB

     The potential is recalculated from file :
     ./_ph0/pwscf.q_2/pwscf.save/charge-density

     Starting wfcs are    0 atomic +   11 random wfcs

     Band Structure Calculation
     Davidson diagonalization with overlap

     ethr =  7.14E-11,  avg # of iterations = 21.2

     total cpu time spent up to now is        7.4 secs

     End of band structure calculation

     Number of k-points >= 100: set verbosity='high' to print the bands.

     the Fermi energy is    11.5438 ev

     Writing output data file ./_ph0/pwscf.q_2/pwscf.save/
 
     [dfpt_tetra]  Dos(E_F)[/Ry] :   0.7203969E+01

     Phonon frequency and deformation potential                                 

     bravais-lattice index     =            2
     lattice parameter (alat)  =       9.5194  a.u.
     unit-cell volume          =     215.6591 (a.u.)^3
     number of atoms/cell      =            1
     number of atomic types    =            1
     kinetic-energy cut-off    =      35.0000  Ry
     charge density cut-off    =     140.0000  Ry
     convergence threshold     =      1.0E-15
     beta                      =       0.3000
     number of iterations used =            4
     Exchange-correlation= PBE
                           (   1   4   3   4   0   0   0)


     celldm(1)=    9.51939  celldm(2)=    0.00000  celldm(3)=    0.00000
     celldm(4)=    0.00000  celldm(5)=    0.00000  celldm(6)=    0.00000

     crystal axes: (cart. coord. in units of alat)
               a(1) = ( -0.5000  0.0000  0.5000 )  
               a(2) = (  0.0000  0.5000  0.5000 )  
               a(3) = ( -0.5000  0.5000  0.0000 )  

     reciprocal axes: (cart. coord. in units 2 pi/alat)
               b(1) = ( -1.0000 -1.0000  1.0000 )  
               b(2) = (  1.0000  1.0000  1.0000 )  
               b(3) = ( -1.0000  1.0000 -1.0000 )  


     Atoms inside the unit cell: 

     Cartesian axes

     site n.  atom      mass           positions (alat units)
        1     Pb 207.2000   tau(    1) = (    0.00000    0.00000    0.00000  )

     Computing dynamical matrix for 
                    q = (  -0.2500000   0.2500000  -0.0833333 )
 
      2 Sym.Ops. (no q -> -q+G )


     G cutoff =  321.3563  (    748 G-vectors)     FFT grid: ( 25, 25, 25)
     number of k points=  1872

     PseudoPot. # 1 for Pb read from file:
     ./Pb_ONCV_PBE-1.2.upf
     MD5 check sum: 7f27c247474026287e0dbe0f3167d60b
     Pseudo is Norm-conserving, Zval = 14.0
     Generated using ONCVPSP code by D. R. Hamann
     Using radial grid of  602 points,  8 beta functions with: 
                l(1) =   0
                l(2) =   0
                l(3) =   1
                l(4) =   1
                l(5) =   2
                l(6) =   2
                l(7) =   3
                l(8) =   3


     Atomic displacements:
     There are    3 irreducible representations

     Representation     1      1 modes -  To be done

     Representation     2      1 modes -  To be done

     Representation     3      1 modes -  To be done



     Alpha used in Ewald sum =   1.4000
     PHONON       :     15.70s CPU     34.39s WALL



     Representation #   1 mode #   1

     Self-consistent Calculation

      iter #   1 total cpu time :    34.8 secs   av.it.:   5.3
      thresh= 1.000E-02 alpha_mix =  0.300 |ddv_scf|^2 =  9.630E-02

      iter #   2 total cpu time :    35.1 secs   av.it.:   6.2
      thresh= 1.000E-02 alpha_mix =  0.300 |ddv_scf|^2 =  1.430E+00

      iter #   3 total cpu time :    35.3 secs   av.it.:   5.9
      thresh= 1.000E-02 alpha_mix =  0.300 |ddv_scf|^2 =  2.710E-05

      iter #   4 total cpu time :    35.6 secs   av.it.:   6.0
      thresh= 5.206E-04 alpha_mix =  0.300 |ddv_scf|^2 =  7.183E-07

      iter #   5 total cpu time :    35.8 secs   av.it.:   5.8
      thresh= 8.475E-05 alpha_mix =  0.300 |ddv_scf|^2 =  2.355E-08

      iter #   6 total cpu time :    36.1 secs   av.it.:   7.3
      thresh= 1.535E-05 alpha_mix =  0.300 |ddv_scf|^2 =  9.586E-09

      iter #   7 total cpu time :    36.3 secs   av.it.:   5.6
      thresh= 9.791E-06 alpha_mix =  0.300 |ddv_scf|^2 =  2.513E-09

      iter #   8 total cpu time :    36.5 secs   av.it.:   4.1
      thresh= 5.013E-06 alpha_mix =  0.300 |ddv_scf|^2 =  4.267E-10

      iter #   9 total cpu time :    36.7 secs   av.it.:   6.2
      thresh= 2.066E-06 alpha_mix =  0.300 |ddv_scf|^2 =  6.852E-11

      iter #  10 total cpu time :    36.9 secs   av.it.:   7.1
      thresh= 8.278E-07 alpha_mix =  0.300 |ddv_scf|^2 =  7.663E-12

      iter #  11 total cpu time :    37.2 secs   av.it.:   6.1
      thresh= 2.768E-07 alpha_mix =  0.300 |ddv_scf|^2 =  1.016E-12

      iter #  12 total cpu time :    37.4 secs   av.it.:   6.7
      thresh= 1.008E-07 alpha_mix =  0.300 |ddv_scf|^2 =  3.837E-13

      iter #  13 total cpu time :    37.7 secs   av.it.:   6.5
      thresh= 6.194E-08 alpha_mix =  0.300 |ddv_scf|^2 =  4.956E-13

      iter #  14 total cpu time :    37.9 secs   av.it.:   6.3
      thresh= 7.040E-08 alpha_mix =  0.300 |ddv_scf|^2 =  8.741E-13

      iter #  15 total cpu time :    38.1 secs   av.it.:   5.7
      thresh= 9.349E-08 alpha_mix =  0.300 |ddv_scf|^2 =  1.830E-14

      iter #  16 total cpu time :    38.4 secs   av.it.:   6.4
      thresh= 1.353E-08 alpha_mix =  0.300 |ddv_scf|^2 =  4.166E-15

      iter #  17 total cpu time :    38.7 secs   av.it.:   6.9
      thresh= 6.454E-09 alpha_mix =  0.300 |ddv_scf|^2 =  5.096E-16

     End of self-consistent calculation

     Convergence has been achieved 


     Representation #   2 mode #   2

     Self-consistent Calculation

      iter #   1 total cpu time :    39.8 secs   av.it.:   5.0
      thresh= 1.000E-02 alpha_mix =  0.300 |ddv_scf|^2 =  1.557E-02

      iter #   2 total cpu time :    40.0 secs   av.it.:   5.4
      thresh= 1.000E-02 alpha_mix =  0.300 |ddv_scf|^2 =  2.302E-01

      iter #   3 total cpu time :    40.3 secs   av.it.:   5.0
      thresh= 1.000E-02 alpha_mix =  0.300 |ddv_scf|^2 =  6.494E-06

      iter #   4 total cpu time :    40.5 secs   av.it.:   6.7
      thresh= 2.548E-04 alpha_mix =  0.300 |ddv_scf|^2 =  1.473E-07

      iter #   5 total cpu time :    40.7 secs   av.it.:   6.4
      thresh= 3.838E-05 alpha_mix =  0.300 |ddv_scf|^2 =  2.303E-08

      iter #   6 total cpu time :    41.0 secs   av.it.:   7.2
      thresh= 1.518E-05 alpha_mix =  0.300 |ddv_scf|^2 =  5.956E-09

      iter #   7 total cpu time :    41.2 secs   av.it.:   4.6
      thresh= 7.717E-06 alpha_mix =  0.300 |ddv_scf|^2 =  3.940E-09

      iter #   8 total cpu time :    41.4 secs   av.it.:   5.1
      thresh= 6.277E-06 alpha_mix =  0.300 |ddv_scf|^2 =  1.249E-10

      iter #   9 total cpu time :    41.7 secs   av.it.:   6.6
      thresh= 1.118E-06 alpha_mix =  0.300 |ddv_scf|^2 =  5.890E-11

      iter #  10 total cpu time :    41.9 secs   av.it.:   7.1
      thresh= 7.674E-07 alpha_mix =  0.300 |ddv_scf|^2 =  4.565E-12

      iter #  11 total cpu time :    42.1 secs   av.it.:   6.5
      thresh= 2.137E-07 alpha_mix =  0.300 |ddv_scf|^2 =  6.209E-13

      iter #  12 total cpu time :    42.4 secs   av.it.:   6.6
      thresh= 7.880E-08 alpha_mix =  0.300 |ddv_scf|^2 =  3.950E-13

      iter #  13 total cpu time :    42.6 secs   av.it.:   6.3
      thresh= 6.285E-08 alpha_mix =  0.300 |ddv_scf|^2 =  8.772E-13

      iter #  14 total cpu time :    42.8 secs   av.it.:   5.8
      thresh= 9.366E-08 alpha_mix =  0.300 |ddv_scf|^2 =  2.311E-13

      iter #  15 total cpu time :    43.0 secs   av.it.:   6.2
      thresh= 4.807E-08 alpha_mix =  0.300 |ddv_scf|^2 =  7.189E-15

      iter #  16 total cpu time :    43.2 secs   av.it.:   6.4
      thresh= 8.479E-09 alpha_mix =  0.300 |ddv_scf|^2 =  3.161E-15

      iter #  17 total cpu time :    43.5 secs   av.it.:   6.8
      thresh= 5.622E-09 alpha_mix =  0.300 |ddv_scf|^2 =  1.540E-16

     End of self-consistent calculation

     Convergence has been achieved 


     Representation #   3 mode #   3

     Self-consistent Calculation

      iter #   1 total cpu time :    44.2 secs   av.it.:   4.7
      thresh= 1.000E-02 alpha_mix =  0.300 |ddv_scf|^2 =  6.297E-05

      iter #   2 total cpu time :    44.4 secs   av.it.:   5.8
      thresh= 7.935E-04 alpha_mix =  0.300 |ddv_scf|^2 =  4.018E-06

      iter #   3 total cpu time :    44.7 secs   av.it.:   6.3
      thresh= 2.005E-04 alpha_mix =  0.300 |ddv_scf|^2 =  5.998E-08

      iter #   4 total cpu time :    45.0 secs   av.it.:   6.7
      thresh= 2.449E-05 alpha_mix =  0.300 |ddv_scf|^2 =  5.282E-10

      iter #   5 total cpu time :    45.2 secs   av.it.:   6.1
      thresh= 2.298E-06 alpha_mix =  0.300 |ddv_scf|^2 =  1.891E-10

      iter #   6 total cpu time :    45.4 secs   av.it.:   6.4
      thresh= 1.375E-06 alpha_mix =  0.300 |ddv_scf|^2 =  1.165E-12

      iter #   7 total cpu time :    45.7 secs   av.it.:   7.1
      thresh= 1.079E-07 alpha_mix =  0.300 |ddv_scf|^2 =  1.767E-13

      iter #   8 total cpu time :    45.9 secs   av.it.:   6.9
      thresh= 4.203E-08 alpha_mix =  0.300 |ddv_scf|^2 =  9.517E-15

      iter #   9 total cpu time :    46.2 secs   av.it.:   6.1
      thresh= 9.756E-09 alpha_mix =  0.300 |ddv_scf|^2 =  4.203E-15

      iter #  10 total cpu time :    46.5 secs   av.it.:   6.8
      thresh= 6.483E-09 alpha_mix =  0.300 |ddv_scf|^2 =  4.849E-17

     End of self-consistent calculation

     Convergence has been achieved 
 
     Number of q in the star =   24
     List of q in the star:
          1  -0.250000000   0.250000000  -0.083333333
          2   0.083333333   0.250000000   0.250000000
          3  -0.250000000  -0.083333333   0.250000000
          4   0.250000000   0.250000000  -0.083333333
          5  -0.250000000  -0.250000000  -0.083333333
          6  -0.083333333  -0.250000000  -0.250000000
          7   0.083333333  -0.250000000   0.250000000
          8  -0.083333333   0.250000000   0.250000000
          9   0.083333333   0.250000000  -0.250000000
         10   0.250000000  -0.083333333   0.250000000
         11   0.250000000   0.083333333  -0.250000000
         12  -0.250000000  -0.083333333  -0.250000000
         13  -0.250000000   0.083333333   0.250000000
         14   0.250000000  -0.083333333  -0.250000000
         15   0.250000000  -0.250000000  -0.083333333
         16   0.250000000   0.083333333   0.250000000
         17  -0.250000000   0.083333333  -0.250000000
         18  -0.083333333  -0.250000000   0.250000000
         19  -0.083333333   0.250000000  -0.250000000
         20   0.250000000   0.250000000   0.083333333
         21   0.083333333  -0.250000000  -0.250000000
         22   0.250000000  -0.250000000   0.083333333
         23  -0.250000000   0.250000000   0.083333333
         24  -0.250000000  -0.250000000   0.083333333

     Diagonalizing the dynamical matrix

     q = (   -0.250000000   0.250000000  -0.083333333 ) 

 **************************************************************************
     freq (    1) =       0.723362 [THz] =      24.128753 [cm-1]
     freq (    2) =       0.917751 [THz] =      30.612881 [cm-1]
     freq (    3) =       1.533424 [THz] =      51.149519 [cm-1]
 **************************************************************************

     Calculation of q =   -0.4166667   0.4166667  -0.2500000
     [opt_tetra]  Optimized tetrahedron method is used.
 
     Parallelization info
     --------------------
     sticks:   dense  smooth     PW     G-vecs:    dense   smooth      PW
     Min          54      54     20                  747      747     170
     Max          55      55     21                  750      750     172
     Sum         433     433    163                 5985     5985    1363
 
     Using Slab Decomposition
 

     Title: 
     Phonon frequency and deformation potential                                 


     bravais-lattice index     =            2
     lattice parameter (alat)  =       9.5194  a.u.
     unit-cell volume          =     215.6591 (a.u.)^3
     number of atoms/cell      =            1
     number of atomic types    =            1
     number of electrons       =        14.00
     number of Kohn-Sham states=           11
     kinetic-energy cutoff     =      35.0000  Ry
     charge density cutoff     =     140.0000  Ry
     Exchange-correlation= PBE
                           (   1   4   3   4   0   0   0)

     celldm(1)=   9.519393  celldm(2)=   0.000000  celldm(3)=   0.000000
     celldm(4)=   0.000000  celldm(5)=   0.000000  celldm(6)=   0.000000

     crystal axes: (cart. coord. in units of alat)
               a(1) = (  -0.500000   0.000000   0.500000 )  
               a(2) = (   0.000000   0.500000   0.500000 )  
               a(3) = (  -0.500000   0.500000   0.000000 )  

     reciprocal axes: (cart. coord. in units 2 pi/alat)
               b(1) = ( -1.000000 -1.000000  1.000000 )  
               b(2) = (  1.000000  1.000000  1.000000 )  
               b(3) = ( -1.000000  1.000000 -1.000000 )  


     PseudoPot. # 1 for Pb read from file:
     ./Pb_ONCV_PBE-1.2.upf
     MD5 check sum: 7f27c247474026287e0dbe0f3167d60b
     Pseudo is Norm-conserving, Zval = 14.0
     Generated using ONCVPSP code by D. R. Hamann
     Using radial grid of  602 points,  8 beta functions with: 
                l(1) =   0
                l(2) =   0
                l(3) =   1
                l(4) =   1
                l(5) =   2
                l(6) =   2
                l(7) =   3
                l(8) =   3

     atomic species   valence    mass     pseudopotential
        Pb            14.00   207.20000     Pb( 1.00)

     48 Sym. Ops., with inversion, found



   Cartesian axes

     site n.     atom                  positions (alat units)
         1           Pb  tau(   1) = (   0.0000000   0.0000000   0.0000000  )

     number of k points=  1872 (tetrahedron method)

     Number of k-points >= 100: set verbosity='high' to print them.

     Dense  grid:     5985 G-vectors     FFT dimensions: (  25,  25,  25)

     Estimated max dynamical RAM per process >       2.92 MB

     Estimated total dynamical RAM >       2.92 GB

     The potential is recalculated from file :
     ./_ph0/pwscf.q_3/pwscf.save/charge-density

     Starting wfcs are    0 atomic +   11 random wfcs

     Band Structure Calculation
     Davidson diagonalization with overlap

     ethr =  7.14E-11,  avg # of iterations = 21.3

     total cpu time spent up to now is        9.7 secs

     End of band structure calculation

     Number of k-points >= 100: set verbosity='high' to print the bands.

     the Fermi energy is    11.5438 ev

     Writing output data file ./_ph0/pwscf.q_3/pwscf.save/
 
     [dfpt_tetra]  Dos(E_F)[/Ry] :   0.7203969E+01

     Phonon frequency and deformation potential                                 

     bravais-lattice index     =            2
     lattice parameter (alat)  =       9.5194  a.u.
     unit-cell volume          =     215.6591 (a.u.)^3
     number of atoms/cell      =            1
     number of atomic types    =            1
     kinetic-energy cut-off    =      35.0000  Ry
     charge density cut-off    =     140.0000  Ry
     convergence threshold     =      1.0E-15
     beta                      =       0.3000
     number of iterations used =            4
     Exchange-correlation= PBE
                           (   1   4   3   4   0   0   0)


     celldm(1)=    9.51939  celldm(2)=    0.00000  celldm(3)=    0.00000
     celldm(4)=    0.00000  celldm(5)=    0.00000  celldm(6)=    0.00000

     crystal axes: (cart. coord. in units of alat)
               a(1) = ( -0.5000  0.0000  0.5000 )  
               a(2) = (  0.0000  0.5000  0.5000 )  
               a(3) = ( -0.5000  0.5000  0.0000 )  

     reciprocal axes: (cart. coord. in units 2 pi/alat)
               b(1) = ( -1.0000 -1.0000  1.0000 )  
               b(2) = (  1.0000  1.0000  1.0000 )  
               b(3) = ( -1.0000  1.0000 -1.0000 )  


     Atoms inside the unit cell: 

     Cartesian axes

     site n.  atom      mass           positions (alat units)
        1     Pb 207.2000   tau(    1) = (    0.00000    0.00000    0.00000  )

     Computing dynamical matrix for 
                    q = (  -0.4166667   0.4166667  -0.2500000 )
 
      2 Sym.Ops. (no q -> -q+G )


     G cutoff =  321.3563  (    749 G-vectors)     FFT grid: ( 25, 25, 25)
     number of k points=  1872

     PseudoPot. # 1 for Pb read from file:
     ./Pb_ONCV_PBE-1.2.upf
     MD5 check sum: 7f27c247474026287e0dbe0f3167d60b
     Pseudo is Norm-conserving, Zval = 14.0
     Generated using ONCVPSP code by D. R. Hamann
     Using radial grid of  602 points,  8 beta functions with: 
                l(1) =   0
                l(2) =   0
                l(3) =   1
                l(4) =   1
                l(5) =   2
                l(6) =   2
                l(7) =   3
                l(8) =   3


     Atomic displacements:
     There are    3 irreducible representations

     Representation     1      1 modes -  To be done

     Representation     2      1 modes -  To be done

     Representation     3      1 modes -  To be done



     Alpha used in Ewald sum =   1.4000
     PHONON       :     26.95s CPU     51.15s WALL



     Representation #   1 mode #   1

     Self-consistent Calculation

      iter #   1 total cpu time :    51.5 secs   av.it.:   5.1
      thresh= 1.000E-02 alpha_mix =  0.300 |ddv_scf|^2 =  4.561E-03

      iter #   2 total cpu time :    51.9 secs   av.it.:   5.4
      thresh= 6.753E-03 alpha_mix =  0.300 |ddv_scf|^2 =  3.621E-03

      iter #   3 total cpu time :    52.1 secs   av.it.:   4.9
      thresh= 6.017E-03 alpha_mix =  0.300 |ddv_scf|^2 =  1.220E-06

      iter #   4 total cpu time :    52.3 secs   av.it.:   6.7
      thresh= 1.104E-04 alpha_mix =  0.300 |ddv_scf|^2 =  4.271E-08

      iter #   5 total cpu time :    52.6 secs   av.it.:   6.9
      thresh= 2.067E-05 alpha_mix =  0.300 |ddv_scf|^2 =  1.163E-08

      iter #   6 total cpu time :    52.8 secs   av.it.:   7.0
      thresh= 1.078E-05 alpha_mix =  0.300 |ddv_scf|^2 =  3.894E-10

      iter #   7 total cpu time :    53.1 secs   av.it.:   7.0
      thresh= 1.973E-06 alpha_mix =  0.300 |ddv_scf|^2 =  5.773E-11

      iter #   8 total cpu time :    53.3 secs   av.it.:   6.9
      thresh= 7.598E-07 alpha_mix =  0.300 |ddv_scf|^2 =  1.084E-11

      iter #   9 total cpu time :    53.5 secs   av.it.:   6.6
      thresh= 3.293E-07 alpha_mix =  0.300 |ddv_scf|^2 =  4.835E-12

      iter #  10 total cpu time :    53.7 secs   av.it.:   6.4
      thresh= 2.199E-07 alpha_mix =  0.300 |ddv_scf|^2 =  9.179E-13

      iter #  11 total cpu time :    54.0 secs   av.it.:   6.7
      thresh= 9.581E-08 alpha_mix =  0.300 |ddv_scf|^2 =  2.164E-13

      iter #  12 total cpu time :    54.2 secs   av.it.:   6.5
      thresh= 4.652E-08 alpha_mix =  0.300 |ddv_scf|^2 =  7.192E-14

      iter #  13 total cpu time :    54.5 secs   av.it.:   6.3
      thresh= 2.682E-08 alpha_mix =  0.300 |ddv_scf|^2 =  1.441E-14

      iter #  14 total cpu time :    54.7 secs   av.it.:   6.9
      thresh= 1.200E-08 alpha_mix =  0.300 |ddv_scf|^2 =  1.799E-15

      iter #  15 total cpu time :    55.1 secs   av.it.:   6.7
      thresh= 4.242E-09 alpha_mix =  0.300 |ddv_scf|^2 =  7.069E-16

     End of self-consistent calculation

     Convergence has been achieved 


     Representation #   2 mode #   2

     Self-consistent Calculation

      iter #   1 total cpu time :    55.8 secs   av.it.:   4.9
      thresh= 1.000E-02 alpha_mix =  0.300 |ddv_scf|^2 =  2.825E-04

      iter #   2 total cpu time :    56.1 secs   av.it.:   5.8
      thresh= 1.681E-03 alpha_mix =  0.300 |ddv_scf|^2 =  1.685E-04

      iter #   3 total cpu time :    56.3 secs   av.it.:   5.1
      thresh= 1.298E-03 alpha_mix =  0.300 |ddv_scf|^2 =  2.253E-06

      iter #   4 total cpu time :    56.5 secs   av.it.:   6.2
      thresh= 1.501E-04 alpha_mix =  0.300 |ddv_scf|^2 =  4.424E-08

      iter #   5 total cpu time :    56.7 secs   av.it.:   6.7
      thresh= 2.103E-05 alpha_mix =  0.300 |ddv_scf|^2 =  1.193E-08

      iter #   6 total cpu time :    57.0 secs   av.it.:   7.1
      thresh= 1.092E-05 alpha_mix =  0.300 |ddv_scf|^2 =  2.042E-10

      iter #   7 total cpu time :    57.3 secs   av.it.:   6.6
      thresh= 1.429E-06 alpha_mix =  0.300 |ddv_scf|^2 =  8.657E-11

      iter #   8 total cpu time :    57.5 secs   av.it.:   7.0
      thresh= 9.304E-07 alpha_mix =  0.300 |ddv_scf|^2 =  7.740E-12

      iter #   9 total cpu time :    57.7 secs   av.it.:   6.0
      thresh= 2.782E-07 alpha_mix =  0.300 |ddv_scf|^2 =  1.719E-12

      iter #  10 total cpu time :    57.9 secs   av.it.:   6.4
      thresh= 1.311E-07 alpha_mix =  0.300 |ddv_scf|^2 =  4.460E-13

      iter #  11 total cpu time :    58.2 secs   av.it.:   7.1
      thresh= 6.678E-08 alpha_mix =  0.300 |ddv_scf|^2 =  7.974E-14

      iter #  12 total cpu time :    58.4 secs   av.it.:   6.7
      thresh= 2.824E-08 alpha_mix =  0.300 |ddv_scf|^2 =  1.913E-14

      iter #  13 total cpu time :    58.7 secs   av.it.:   7.0
      thresh= 1.383E-08 alpha_mix =  0.300 |ddv_scf|^2 =  2.205E-15

      iter #  14 total cpu time :    59.0 secs   av.it.:   6.6
      thresh= 4.696E-09 alpha_mix =  0.300 |ddv_scf|^2 =  7.159E-16

     End of self-consistent calculation

     Convergence has been achieved 


     Representation #   3 mode #   3

     Self-consistent Calculation

      iter #   1 total cpu time :    59.6 secs   av.it.:   4.8
      thresh= 1.000E-02 alpha_mix =  0.300 |ddv_scf|^2 =  6.993E-05

      iter #   2 total cpu time :    59.8 secs   av.it.:   5.8
      thresh= 8.363E-04 alpha_mix =  0.300 |ddv_scf|^2 =  4.173E-06

      iter #   3 total cpu time :    60.1 secs   av.it.:   6.3
      thresh= 2.043E-04 alpha_mix =  0.300 |ddv_scf|^2 =  6.172E-08

      iter #   4 total cpu time :    60.3 secs   av.it.:   6.7
      thresh= 2.484E-05 alpha_mix =  0.300 |ddv_scf|^2 =  6.443E-10

      iter #   5 total cpu time :    60.6 secs   av.it.:   6.2
      thresh= 2.538E-06 alpha_mix =  0.300 |ddv_scf|^2 =  2.360E-10

      iter #   6 total cpu time :    60.8 secs   av.it.:   6.6
      thresh= 1.536E-06 alpha_mix =  0.300 |ddv_scf|^2 =  2.455E-12

      iter #   7 total cpu time :    61.1 secs   av.it.:   7.1
      thresh= 1.567E-07 alpha_mix =  0.300 |ddv_scf|^2 =  3.318E-13

      iter #   8 total cpu time :    61.3 secs   av.it.:   6.6
      thresh= 5.760E-08 alpha_mix =  0.300 |ddv_scf|^2 =  1.323E-14

      iter #   9 total cpu time :    61.5 secs   av.it.:   6.3
      thresh= 1.150E-08 alpha_mix =  0.300 |ddv_scf|^2 =  5.921E-15

      iter #  10 total cpu time :    61.9 secs   av.it.:   6.9
      thresh= 7.695E-09 alpha_mix =  0.300 |ddv_scf|^2 =  5.394E-17

     End of self-consistent calculation

     Convergence has been achieved 
 
     Number of q in the star =   24
     List of q in the star:
          1  -0.416666667   0.416666667  -0.250000000
          2   0.250000000   0.416666667   0.416666667
          3  -0.416666667  -0.250000000   0.416666667
          4   0.416666667   0.416666667  -0.250000000
          5  -0.416666667  -0.416666667  -0.250000000
          6  -0.250000000  -0.416666667  -0.416666667
          7   0.250000000  -0.416666667   0.416666667
          8  -0.250000000   0.416666667   0.416666667
          9   0.250000000   0.416666667  -0.416666667
         10   0.416666667  -0.250000000   0.416666667
         11   0.416666667   0.250000000  -0.416666667
         12  -0.416666667  -0.250000000  -0.416666667
         13  -0.416666667   0.250000000   0.416666667
         14   0.416666667  -0.250000000  -0.416666667
         15   0.416666667  -0.416666667  -0.250000000
         16   0.416666667   0.250000000   0.416666667
         17  -0.416666667   0.250000000  -0.416666667
         18  -0.250000000  -0.416666667   0.416666667
         19  -0.250000000   0.416666667  -0.416666667
         20   0.416666667   0.416666667   0.250000000
         21   0.250000000  -0.416666667  -0.416666667
         22   0.416666667  -0.416666667   0.250000000
         23  -0.416666667   0.416666667   0.250000000
         24  -0.416666667  -0.416666667   0.250000000

     Diagonalizing the dynamical matrix

     q = (   -0.416666667   0.416666667  -0.250000000 ) 

 **************************************************************************
     freq (    1) =       1.031023 [THz] =      34.391224 [cm-1]
     freq (    2) =       1.037931 [THz] =      34.621646 [cm-1]
     freq (    3) =       1.884971 [THz] =      62.875862 [cm-1]
 **************************************************************************

     Calculation of q =    0.4166667  -0.4166667   0.5833333
     [opt_tetra]  Optimized tetrahedron method is used.
 
     Parallelization info
     --------------------
     sticks:   dense  smooth     PW     G-vecs:    dense   smooth      PW
     Min          54      54     20                  747      747     175
     Max          55      55     21                  750      750     178
     Sum         433     433    163                 5985     5985    1411
 
     Using Slab Decomposition
 

     Title: 
     Phonon frequency and deformation potential                                 


     bravais-lattice index     =            2
     lattice parameter (alat)  =       9.5194  a.u.
     unit-cell volume          =     215.6591 (a.u.)^3
     number of atoms/cell      =            1
     number of atomic types    =            1
     number of electrons       =        14.00
     number of Kohn-Sham states=           11
     kinetic-energy cutoff     =      35.0000  Ry
     charge density cutoff     =     140.0000  Ry
     Exchange-correlation= PBE
                           (   1   4   3   4   0   0   0)

     celldm(1)=   9.519393  celldm(2)=   0.000000  celldm(3)=   0.000000
     celldm(4)=   0.000000  celldm(5)=   0.000000  celldm(6)=   0.000000

     crystal axes: (cart. coord. in units of alat)
               a(1) = (  -0.500000   0.000000   0.500000 )  
               a(2) = (   0.000000   0.500000   0.500000 )  
               a(3) = (  -0.500000   0.500000   0.000000 )  

     reciprocal axes: (cart. coord. in units 2 pi/alat)
               b(1) = ( -1.000000 -1.000000  1.000000 )  
               b(2) = (  1.000000  1.000000  1.000000 )  
               b(3) = ( -1.000000  1.000000 -1.000000 )  


     PseudoPot. # 1 for Pb read from file:
     ./Pb_ONCV_PBE-1.2.upf
     MD5 check sum: 7f27c247474026287e0dbe0f3167d60b
     Pseudo is Norm-conserving, Zval = 14.0
     Generated using ONCVPSP code by D. R. Hamann
     Using radial grid of  602 points,  8 beta functions with: 
                l(1) =   0
                l(2) =   0
                l(3) =   1
                l(4) =   1
                l(5) =   2
                l(6) =   2
                l(7) =   3
                l(8) =   3

     atomic species   valence    mass     pseudopotential
        Pb            14.00   207.20000     Pb( 1.00)

     48 Sym. Ops., with inversion, found



   Cartesian axes

     site n.     atom                  positions (alat units)
         1           Pb  tau(   1) = (   0.0000000   0.0000000   0.0000000  )

     number of k points=  1872 (tetrahedron method)

     Number of k-points >= 100: set verbosity='high' to print them.

     Dense  grid:     5985 G-vectors     FFT dimensions: (  25,  25,  25)

     Estimated max dynamical RAM per process >       2.94 MB

     Estimated total dynamical RAM >       2.94 GB

     The potential is recalculated from file :
     ./_ph0/pwscf.q_4/pwscf.save/charge-density

     Starting wfcs are    0 atomic +   11 random wfcs

     Band Structure Calculation
     Davidson diagonalization with overlap

     ethr =  7.14E-11,  avg # of iterations = 21.2

     total cpu time spent up to now is       12.0 secs

     End of band structure calculation

     Number of k-points >= 100: set verbosity='high' to print the bands.

     the Fermi energy is    11.5438 ev

     Writing output data file ./_ph0/pwscf.q_4/pwscf.save/
 
     [dfpt_tetra]  Dos(E_F)[/Ry] :   0.7203969E+01

     Phonon frequency and deformation potential                                 

     bravais-lattice index     =            2
     lattice parameter (alat)  =       9.5194  a.u.
     unit-cell volume          =     215.6591 (a.u.)^3
     number of atoms/cell      =            1
     number of atomic types    =            1
     kinetic-energy cut-off    =      35.0000  Ry
     charge density cut-off    =     140.0000  Ry
     convergence threshold     =      1.0E-15
     beta                      =       0.3000
     number of iterations used =            4
     Exchange-correlation= PBE
                           (   1   4   3   4   0   0   0)


     celldm(1)=    9.51939  celldm(2)=    0.00000  celldm(3)=    0.00000
     celldm(4)=    0.00000  celldm(5)=    0.00000  celldm(6)=    0.00000

     crystal axes: (cart. coord. in units of alat)
               a(1) = ( -0.5000  0.0000  0.5000 )  
               a(2) = (  0.0000  0.5000  0.5000 )  
               a(3) = ( -0.5000  0.5000  0.0000 )  

     reciprocal axes: (cart. coord. in units 2 pi/alat)
               b(1) = ( -1.0000 -1.0000  1.0000 )  
               b(2) = (  1.0000  1.0000  1.0000 )  
               b(3) = ( -1.0000  1.0000 -1.0000 )  


     Atoms inside the unit cell: 

     Cartesian axes

     site n.  atom      mass           positions (alat units)
        1     Pb 207.2000   tau(    1) = (    0.00000    0.00000    0.00000  )

     Computing dynamical matrix for 
                    q = (   0.4166667  -0.4166667   0.5833333 )
 
      2 Sym.Ops. (no q -> -q+G )


     G cutoff =  321.3563  (    749 G-vectors)     FFT grid: ( 25, 25, 25)
     number of k points=  1872

     PseudoPot. # 1 for Pb read from file:
     ./Pb_ONCV_PBE-1.2.upf
     MD5 check sum: 7f27c247474026287e0dbe0f3167d60b
     Pseudo is Norm-conserving, Zval = 14.0
     Generated using ONCVPSP code by D. R. Hamann
     Using radial grid of  602 points,  8 beta functions with: 
                l(1) =   0
                l(2) =   0
                l(3) =   1
                l(4) =   1
                l(5) =   2
                l(6) =   2
                l(7) =   3
                l(8) =   3


     Atomic displacements:
     There are    3 irreducible representations

     Representation     1      1 modes -  To be done

     Representation     2      1 modes -  To be done

     Representation     3      1 modes -  To be done



     Alpha used in Ewald sum =   1.4000
     PHONON       :     37.58s CPU   1m 6.08s WALL



     Representation #   1 mode #   1

     Self-consistent Calculation

      iter #   1 total cpu time :    66.4 secs   av.it.:   5.0
      thresh= 1.000E-02 alpha_mix =  0.300 |ddv_scf|^2 =  1.504E-03

      iter #   2 total cpu time :    66.8 secs   av.it.:   5.6
      thresh= 3.878E-03 alpha_mix =  0.300 |ddv_scf|^2 =  8.968E-05

      iter #   3 total cpu time :    67.0 secs   av.it.:   5.4
      thresh= 9.470E-04 alpha_mix =  0.300 |ddv_scf|^2 =  1.026E-07

      iter #   4 total cpu time :    67.2 secs   av.it.:   6.0
      thresh= 3.204E-05 alpha_mix =  0.300 |ddv_scf|^2 =  3.096E-08

      iter #   5 total cpu time :    67.4 secs   av.it.:   6.8
      thresh= 1.760E-05 alpha_mix =  0.300 |ddv_scf|^2 =  8.593E-10

      iter #   6 total cpu time :    67.7 secs   av.it.:   6.9
      thresh= 2.931E-06 alpha_mix =  0.300 |ddv_scf|^2 =  2.900E-10

      iter #   7 total cpu time :    68.0 secs   av.it.:   6.7
      thresh= 1.703E-06 alpha_mix =  0.300 |ddv_scf|^2 =  2.835E-11

      iter #   8 total cpu time :    68.2 secs   av.it.:   6.5
      thresh= 5.324E-07 alpha_mix =  0.300 |ddv_scf|^2 =  2.945E-12

      iter #   9 total cpu time :    68.4 secs   av.it.:   6.7
      thresh= 1.716E-07 alpha_mix =  0.300 |ddv_scf|^2 =  3.350E-13

      iter #  10 total cpu time :    68.6 secs   av.it.:   7.1
      thresh= 5.788E-08 alpha_mix =  0.300 |ddv_scf|^2 =  3.295E-14

      iter #  11 total cpu time :    68.9 secs   av.it.:   6.5
      thresh= 1.815E-08 alpha_mix =  0.300 |ddv_scf|^2 =  1.217E-14

      iter #  12 total cpu time :    69.1 secs   av.it.:   6.8
      thresh= 1.103E-08 alpha_mix =  0.300 |ddv_scf|^2 =  1.276E-15

      iter #  13 total cpu time :    69.5 secs   av.it.:   7.0
      thresh= 3.572E-09 alpha_mix =  0.300 |ddv_scf|^2 =  4.727E-17

     End of self-consistent calculation

     Convergence has been achieved 


     Representation #   2 mode #   2

     Self-consistent Calculation

      iter #   1 total cpu time :    70.3 secs   av.it.:   4.9
      thresh= 1.000E-02 alpha_mix =  0.300 |ddv_scf|^2 =  1.174E-04

      iter #   2 total cpu time :    71.1 secs   av.it.:   5.9
      thresh= 1.083E-03 alpha_mix =  0.300 |ddv_scf|^2 =  6.596E-06

      iter #   3 total cpu time :    71.4 secs   av.it.:   6.4
      thresh= 2.568E-04 alpha_mix =  0.300 |ddv_scf|^2 =  4.209E-07

      iter #   4 total cpu time :    71.6 secs   av.it.:   6.1
      thresh= 6.487E-05 alpha_mix =  0.300 |ddv_scf|^2 =  3.570E-08

      iter #   5 total cpu time :    71.8 secs   av.it.:   6.3
      thresh= 1.889E-05 alpha_mix =  0.300 |ddv_scf|^2 =  1.328E-08

      iter #   6 total cpu time :    72.1 secs   av.it.:   7.1
      thresh= 1.152E-05 alpha_mix =  0.300 |ddv_scf|^2 =  1.786E-10

      iter #   7 total cpu time :    72.3 secs   av.it.:   6.5
      thresh= 1.337E-06 alpha_mix =  0.300 |ddv_scf|^2 =  8.021E-11

      iter #   8 total cpu time :    72.5 secs   av.it.:   7.1
      thresh= 8.956E-07 alpha_mix =  0.300 |ddv_scf|^2 =  1.027E-12

      iter #   9 total cpu time :    72.8 secs   av.it.:   7.2
      thresh= 1.013E-07 alpha_mix =  0.300 |ddv_scf|^2 =  1.566E-13

      iter #  10 total cpu time :    73.1 secs   av.it.:   7.1
      thresh= 3.958E-08 alpha_mix =  0.300 |ddv_scf|^2 =  2.024E-14

      iter #  11 total cpu time :    73.3 secs   av.it.:   6.6
      thresh= 1.423E-08 alpha_mix =  0.300 |ddv_scf|^2 =  6.593E-15

      iter #  12 total cpu time :    73.6 secs   av.it.:   7.0
      thresh= 8.120E-09 alpha_mix =  0.300 |ddv_scf|^2 =  4.090E-16

     End of self-consistent calculation

     Convergence has been achieved 


     Representation #   3 mode #   3

     Self-consistent Calculation

      iter #   1 total cpu time :    74.4 secs   av.it.:   4.8
      thresh= 1.000E-02 alpha_mix =  0.300 |ddv_scf|^2 =  7.620E-05

      iter #   2 total cpu time :    74.6 secs   av.it.:   5.8
      thresh= 8.729E-04 alpha_mix =  0.300 |ddv_scf|^2 =  4.289E-06

      iter #   3 total cpu time :    74.8 secs   av.it.:   6.2
      thresh= 2.071E-04 alpha_mix =  0.300 |ddv_scf|^2 =  6.298E-08

      iter #   4 total cpu time :    75.0 secs   av.it.:   6.7
      thresh= 2.510E-05 alpha_mix =  0.300 |ddv_scf|^2 =  7.508E-10

      iter #   5 total cpu time :    75.3 secs   av.it.:   6.1
      thresh= 2.740E-06 alpha_mix =  0.300 |ddv_scf|^2 =  2.752E-10

      iter #   6 total cpu time :    75.5 secs   av.it.:   6.6
      thresh= 1.659E-06 alpha_mix =  0.300 |ddv_scf|^2 =  2.936E-12

      iter #   7 total cpu time :    75.8 secs   av.it.:   7.2
      thresh= 1.713E-07 alpha_mix =  0.300 |ddv_scf|^2 =  2.907E-13

      iter #   8 total cpu time :    76.0 secs   av.it.:   6.6
      thresh= 5.392E-08 alpha_mix =  0.300 |ddv_scf|^2 =  2.271E-14

      iter #   9 total cpu time :    76.2 secs   av.it.:   6.1
      thresh= 1.507E-08 alpha_mix =  0.300 |ddv_scf|^2 =  9.684E-15

      iter #  10 total cpu time :    76.6 secs   av.it.:   6.8
      thresh= 9.841E-09 alpha_mix =  0.300 |ddv_scf|^2 =  1.559E-16

     End of self-consistent calculation

     Convergence has been achieved 
 
     Number of q in the star =   24
     List of q in the star:
          1   0.416666667  -0.416666667   0.583333333
          2  -0.583333333  -0.416666667  -0.416666667
          3   0.416666667   0.583333333  -0.416666667
          4  -0.416666667  -0.416666667   0.583333333
          5   0.416666667   0.416666667   0.583333333
          6   0.583333333   0.416666667   0.416666667
          7  -0.583333333   0.416666667  -0.416666667
          8   0.583333333  -0.416666667  -0.416666667
          9  -0.583333333  -0.416666667   0.416666667
         10  -0.416666667   0.583333333  -0.416666667
         11  -0.416666667  -0.583333333   0.416666667
         12   0.416666667   0.583333333   0.416666667
         13   0.416666667  -0.583333333  -0.416666667
         14  -0.416666667   0.583333333   0.416666667
         15  -0.416666667   0.416666667   0.583333333
         16  -0.416666667  -0.583333333  -0.416666667
         17   0.416666667  -0.583333333   0.416666667
         18   0.583333333   0.416666667  -0.416666667
         19   0.583333333  -0.416666667   0.416666667
         20  -0.416666667  -0.416666667  -0.583333333
         21  -0.583333333   0.416666667   0.416666667
         22  -0.416666667   0.416666667  -0.583333333
         23   0.416666667  -0.416666667  -0.583333333
         24   0.416666667   0.416666667  -0.583333333

     Diagonalizing the dynamical matrix

     q = (    0.416666667  -0.416666667   0.583333333 ) 

 **************************************************************************
     freq (    1) =       1.089998 [THz] =      36.358418 [cm-1]
     freq (    2) =       1.156085 [THz] =      38.562829 [cm-1]
     freq (    3) =       2.059015 [THz] =      68.681357 [cm-1]
 **************************************************************************

     Calculation of q =    0.2500000  -0.2500000   0.4166667
     [opt_tetra]  Optimized tetrahedron method is used.
 
     Parallelization info
     --------------------
     sticks:   dense  smooth     PW     G-vecs:    dense   smooth      PW
     Min          54      54     20                  747      747     170
     Max          55      55     21                  750      750     172
     Sum         433     433    163                 5985     5985    1363
 
     Using Slab Decomposition
 

     Title: 
     Phonon frequency and deformation potential                                 


     bravais-lattice index     =            2
     lattice parameter (alat)  =       9.5194  a.u.
     unit-cell volume          =     215.6591 (a.u.)^3
     number of atoms/cell      =            1
     number of atomic types    =            1
     number of electrons       =        14.00
     number of Kohn-Sham states=           11
     kinetic-energy cutoff     =      35.0000  Ry
     charge density cutoff     =     140.0000  Ry
     Exchange-correlation= PBE
                           (   1   4   3   4   0   0   0)

     celldm(1)=   9.519393  celldm(2)=   0.000000  celldm(3)=   0.000000
     celldm(4)=   0.000000  celldm(5)=   0.000000  celldm(6)=   0.000000

     crystal axes: (cart. coord. in units of alat)
               a(1) = (  -0.500000   0.000000   0.500000 )  
               a(2) = (   0.000000   0.500000   0.500000 )  
               a(3) = (  -0.500000   0.500000   0.000000 )  

     reciprocal axes: (cart. coord. in units 2 pi/alat)
               b(1) = ( -1.000000 -1.000000  1.000000 )  
               b(2) = (  1.000000  1.000000  1.000000 )  
               b(3) = ( -1.000000  1.000000 -1.000000 )  


     PseudoPot. # 1 for Pb read from file:
     ./Pb_ONCV_PBE-1.2.upf
     MD5 check sum: 7f27c247474026287e0dbe0f3167d60b
     Pseudo is Norm-conserving, Zval = 14.0
     Generated using ONCVPSP code by D. R. Hamann
     Using radial grid of  602 points,  8 beta functions with: 
                l(1) =   0
                l(2) =   0
                l(3) =   1
                l(4) =   1
                l(5) =   2
                l(6) =   2
                l(7) =   3
                l(8) =   3

     atomic species   valence    mass     pseudopotential
        Pb            14.00   207.20000     Pb( 1.00)

     48 Sym. Ops., with inversion, found



   Cartesian axes

     site n.     atom                  positions (alat units)
         1           Pb  tau(   1) = (   0.0000000   0.0000000   0.0000000  )

     number of k points=  1872 (tetrahedron method)

     Number of k-points >= 100: set verbosity='high' to print them.

     Dense  grid:     5985 G-vectors     FFT dimensions: (  25,  25,  25)

     Estimated max dynamical RAM per process >       2.90 MB

     Estimated total dynamical RAM >       2.90 GB

     The potential is recalculated from file :
     ./_ph0/pwscf.q_5/pwscf.save/charge-density

     Starting wfcs are    0 atomic +   11 random wfcs

     Band Structure Calculation
     Davidson diagonalization with overlap

     ethr =  7.14E-11,  avg # of iterations = 21.2

     total cpu time spent up to now is       14.1 secs

     End of band structure calculation

     Number of k-points >= 100: set verbosity='high' to print the bands.

     the Fermi energy is    11.5438 ev

     Writing output data file ./_ph0/pwscf.q_5/pwscf.save/
 
     [dfpt_tetra]  Dos(E_F)[/Ry] :   0.7203969E+01

     Phonon frequency and deformation potential                                 

     bravais-lattice index     =            2
     lattice parameter (alat)  =       9.5194  a.u.
     unit-cell volume          =     215.6591 (a.u.)^3
     number of atoms/cell      =            1
     number of atomic types    =            1
     kinetic-energy cut-off    =      35.0000  Ry
     charge density cut-off    =     140.0000  Ry
     convergence threshold     =      1.0E-15
     beta                      =       0.3000
     number of iterations used =            4
     Exchange-correlation= PBE
                           (   1   4   3   4   0   0   0)


     celldm(1)=    9.51939  celldm(2)=    0.00000  celldm(3)=    0.00000
     celldm(4)=    0.00000  celldm(5)=    0.00000  celldm(6)=    0.00000

     crystal axes: (cart. coord. in units of alat)
               a(1) = ( -0.5000  0.0000  0.5000 )  
               a(2) = (  0.0000  0.5000  0.5000 )  
               a(3) = ( -0.5000  0.5000  0.0000 )  

     reciprocal axes: (cart. coord. in units 2 pi/alat)
               b(1) = ( -1.0000 -1.0000  1.0000 )  
               b(2) = (  1.0000  1.0000  1.0000 )  
               b(3) = ( -1.0000  1.0000 -1.0000 )  


     Atoms inside the unit cell: 

     Cartesian axes

     site n.  atom      mass           positions (alat units)
        1     Pb 207.2000   tau(    1) = (    0.00000    0.00000    0.00000  )

     Computing dynamical matrix for 
                    q = (   0.2500000  -0.2500000   0.4166667 )
 
      2 Sym.Ops. (no q -> -q+G )


     G cutoff =  321.3563  (    749 G-vectors)     FFT grid: ( 25, 25, 25)
     number of k points=  1872

     PseudoPot. # 1 for Pb read from file:
     ./Pb_ONCV_PBE-1.2.upf
     MD5 check sum: 7f27c247474026287e0dbe0f3167d60b
     Pseudo is Norm-conserving, Zval = 14.0
     Generated using ONCVPSP code by D. R. Hamann
     Using radial grid of  602 points,  8 beta functions with: 
                l(1) =   0
                l(2) =   0
                l(3) =   1
                l(4) =   1
                l(5) =   2
                l(6) =   2
                l(7) =   3
                l(8) =   3


     Atomic displacements:
     There are    3 irreducible representations

     Representation     1      1 modes -  To be done

     Representation     2      1 modes -  To be done

     Representation     3      1 modes -  To be done



     Alpha used in Ewald sum =   1.4000
     PHONON       :     48.17s CPU   1m20.63s WALL



     Representation #   1 mode #   1

     Self-consistent Calculation

      iter #   1 total cpu time :    80.9 secs   av.it.:   5.1
      thresh= 1.000E-02 alpha_mix =  0.300 |ddv_scf|^2 =  1.065E-02

      iter #   2 total cpu time :    81.3 secs   av.it.:   5.3
      thresh= 1.000E-02 alpha_mix =  0.300 |ddv_scf|^2 =  2.207E-02

      iter #   3 total cpu time :    81.5 secs   av.it.:   4.9
      thresh= 1.000E-02 alpha_mix =  0.300 |ddv_scf|^2 =  5.187E-06

      iter #   4 total cpu time :    81.8 secs   av.it.:   6.5
      thresh= 2.277E-04 alpha_mix =  0.300 |ddv_scf|^2 =  6.333E-08

      iter #   5 total cpu time :    82.0 secs   av.it.:   6.6
      thresh= 2.517E-05 alpha_mix =  0.300 |ddv_scf|^2 =  1.833E-08

      iter #   6 total cpu time :    82.3 secs   av.it.:   7.1
      thresh= 1.354E-05 alpha_mix =  0.300 |ddv_scf|^2 =  4.539E-10

      iter #   7 total cpu time :    82.5 secs   av.it.:   7.1
      thresh= 2.130E-06 alpha_mix =  0.300 |ddv_scf|^2 =  1.514E-10

      iter #   8 total cpu time :    82.7 secs   av.it.:   6.2
      thresh= 1.230E-06 alpha_mix =  0.300 |ddv_scf|^2 =  1.987E-11

      iter #   9 total cpu time :    83.0 secs   av.it.:   6.1
      thresh= 4.457E-07 alpha_mix =  0.300 |ddv_scf|^2 =  1.652E-11

      iter #  10 total cpu time :    83.2 secs   av.it.:   5.2
      thresh= 4.065E-07 alpha_mix =  0.300 |ddv_scf|^2 =  3.095E-12

      iter #  11 total cpu time :    83.5 secs   av.it.:   6.8
      thresh= 1.759E-07 alpha_mix =  0.300 |ddv_scf|^2 =  3.821E-13

      iter #  12 total cpu time :    83.7 secs   av.it.:   6.3
      thresh= 6.181E-08 alpha_mix =  0.300 |ddv_scf|^2 =  4.290E-14

      iter #  13 total cpu time :    83.9 secs   av.it.:   6.4
      thresh= 2.071E-08 alpha_mix =  0.300 |ddv_scf|^2 =  1.817E-14

      iter #  14 total cpu time :    84.2 secs   av.it.:   6.7
      thresh= 1.348E-08 alpha_mix =  0.300 |ddv_scf|^2 =  1.096E-15

      iter #  15 total cpu time :    84.6 secs   av.it.:   6.6
      thresh= 3.310E-09 alpha_mix =  0.300 |ddv_scf|^2 =  5.596E-16

     End of self-consistent calculation

     Convergence has been achieved 


     Representation #   2 mode #   2

     Self-consistent Calculation

      iter #   1 total cpu time :    85.2 secs   av.it.:   4.9
      thresh= 1.000E-02 alpha_mix =  0.300 |ddv_scf|^2 =  7.788E-04

      iter #   2 total cpu time :    85.5 secs   av.it.:   5.5
      thresh= 2.791E-03 alpha_mix =  0.300 |ddv_scf|^2 =  1.486E-03

      iter #   3 total cpu time :    85.7 secs   av.it.:   4.4
      thresh= 3.855E-03 alpha_mix =  0.300 |ddv_scf|^2 =  2.097E-06

      iter #   4 total cpu time :    86.0 secs   av.it.:   6.8
      thresh= 1.448E-04 alpha_mix =  0.300 |ddv_scf|^2 =  4.749E-08

      iter #   5 total cpu time :    86.2 secs   av.it.:   6.6
      thresh= 2.179E-05 alpha_mix =  0.300 |ddv_scf|^2 =  1.379E-08

      iter #   6 total cpu time :    86.5 secs   av.it.:   7.1
      thresh= 1.174E-05 alpha_mix =  0.300 |ddv_scf|^2 =  2.489E-10

      iter #   7 total cpu time :    86.7 secs   av.it.:   6.7
      thresh= 1.578E-06 alpha_mix =  0.300 |ddv_scf|^2 =  1.007E-10

      iter #   8 total cpu time :    87.0 secs   av.it.:   6.3
      thresh= 1.003E-06 alpha_mix =  0.300 |ddv_scf|^2 =  9.254E-11

      iter #   9 total cpu time :    87.2 secs   av.it.:   6.2
      thresh= 9.620E-07 alpha_mix =  0.300 |ddv_scf|^2 =  8.061E-12

      iter #  10 total cpu time :    87.4 secs   av.it.:   6.9
      thresh= 2.839E-07 alpha_mix =  0.300 |ddv_scf|^2 =  1.361E-12

      iter #  11 total cpu time :    87.7 secs   av.it.:   6.5
      thresh= 1.166E-07 alpha_mix =  0.300 |ddv_scf|^2 =  1.378E-13

      iter #  12 total cpu time :    87.9 secs   av.it.:   7.0
      thresh= 3.712E-08 alpha_mix =  0.300 |ddv_scf|^2 =  3.753E-14

      iter #  13 total cpu time :    88.2 secs   av.it.:   6.9
      thresh= 1.937E-08 alpha_mix =  0.300 |ddv_scf|^2 =  1.506E-14

      iter #  14 total cpu time :    89.1 secs   av.it.:   6.9
      thresh= 1.227E-08 alpha_mix =  0.300 |ddv_scf|^2 =  3.841E-15

      iter #  15 total cpu time :    89.3 secs   av.it.:   5.7
      thresh= 6.198E-09 alpha_mix =  0.300 |ddv_scf|^2 =  1.010E-15

      iter #  16 total cpu time :    89.6 secs   av.it.:   5.4
      thresh= 3.179E-09 alpha_mix =  0.300 |ddv_scf|^2 =  1.308E-16

     End of self-consistent calculation

     Convergence has been achieved 


     Representation #   3 mode #   3

     Self-consistent Calculation

      iter #   1 total cpu time :    90.2 secs   av.it.:   4.8
      thresh= 1.000E-02 alpha_mix =  0.300 |ddv_scf|^2 =  7.535E-05

      iter #   2 total cpu time :    90.6 secs   av.it.:   5.8
      thresh= 8.680E-04 alpha_mix =  0.300 |ddv_scf|^2 =  4.280E-06

      iter #   3 total cpu time :    90.8 secs   av.it.:   6.2
      thresh= 2.069E-04 alpha_mix =  0.300 |ddv_scf|^2 =  6.160E-08

      iter #   4 total cpu time :    91.1 secs   av.it.:   6.7
      thresh= 2.482E-05 alpha_mix =  0.300 |ddv_scf|^2 =  7.993E-10

      iter #   5 total cpu time :    91.3 secs   av.it.:   6.3
      thresh= 2.827E-06 alpha_mix =  0.300 |ddv_scf|^2 =  2.823E-10

      iter #   6 total cpu time :    92.4 secs   av.it.:   6.7
      thresh= 1.680E-06 alpha_mix =  0.300 |ddv_scf|^2 =  4.813E-12

      iter #   7 total cpu time :    92.7 secs   av.it.:   7.1
      thresh= 2.194E-07 alpha_mix =  0.300 |ddv_scf|^2 =  4.594E-13

      iter #   8 total cpu time :    92.9 secs   av.it.:   6.7
      thresh= 6.778E-08 alpha_mix =  0.300 |ddv_scf|^2 =  2.520E-14

      iter #   9 total cpu time :    93.1 secs   av.it.:   6.4
      thresh= 1.587E-08 alpha_mix =  0.300 |ddv_scf|^2 =  1.132E-14

      iter #  10 total cpu time :    93.5 secs   av.it.:   7.0
      thresh= 1.064E-08 alpha_mix =  0.300 |ddv_scf|^2 =  1.223E-16

     End of self-consistent calculation

     Convergence has been achieved 
 
     Number of q in the star =   24
     List of q in the star:
          1   0.250000000  -0.250000000   0.416666667
          2  -0.416666667  -0.250000000  -0.250000000
          3   0.250000000   0.416666667  -0.250000000
          4  -0.250000000  -0.250000000   0.416666667
          5   0.250000000   0.250000000   0.416666667
          6   0.416666667   0.250000000   0.250000000
          7  -0.416666667   0.250000000  -0.250000000
          8   0.416666667  -0.250000000  -0.250000000
          9  -0.416666667  -0.250000000   0.250000000
         10  -0.250000000   0.416666667  -0.250000000
         11  -0.250000000  -0.416666667   0.250000000
         12   0.250000000   0.416666667   0.250000000
         13   0.250000000  -0.416666667  -0.250000000
         14  -0.250000000   0.416666667   0.250000000
         15  -0.250000000   0.250000000   0.416666667
         16  -0.250000000  -0.416666667  -0.250000000
         17   0.250000000  -0.416666667   0.250000000
         18   0.416666667   0.250000000  -0.250000000
         19   0.416666667  -0.250000000   0.250000000
         20  -0.250000000  -0.250000000  -0.416666667
         21  -0.416666667   0.250000000   0.250000000
         22  -0.250000000   0.250000000  -0.416666667
         23   0.250000000  -0.250000000  -0.416666667
         24   0.250000000   0.250000000  -0.416666667

     Diagonalizing the dynamical matrix

     q = (    0.250000000  -0.250000000   0.416666667 ) 

 **************************************************************************
     freq (    1) =       0.995841 [THz] =      33.217672 [cm-1]
     freq (    2) =       1.019433 [THz] =      34.004612 [cm-1]
     freq (    3) =       1.822480 [THz] =      60.791388 [cm-1]
 **************************************************************************

     Calculation of q =    0.0833333  -0.0833333   0.2500000
     [opt_tetra]  Optimized tetrahedron method is used.
 
     Parallelization info
     --------------------
     sticks:   dense  smooth     PW     G-vecs:    dense   smooth      PW
     Min          54      54     18                  747      747     153
     Max          55      55     19                  750      750     156
     Sum         433     433    151                 5985     5985    1243
 
     Using Slab Decomposition
 

     Title: 
     Phonon frequency and deformation potential                                 


     bravais-lattice index     =            2
     lattice parameter (alat)  =       9.5194  a.u.
     unit-cell volume          =     215.6591 (a.u.)^3
     number of atoms/cell      =            1
     number of atomic types    =            1
     number of electrons       =        14.00
     number of Kohn-Sham states=           11
     kinetic-energy cutoff     =      35.0000  Ry
     charge density cutoff     =     140.0000  Ry
     Exchange-correlation= PBE
                           (   1   4   3   4   0   0   0)

     celldm(1)=   9.519393  celldm(2)=   0.000000  celldm(3)=   0.000000
     celldm(4)=   0.000000  celldm(5)=   0.000000  celldm(6)=   0.000000

     crystal axes: (cart. coord. in units of alat)
               a(1) = (  -0.500000   0.000000   0.500000 )  
               a(2) = (   0.000000   0.500000   0.500000 )  
               a(3) = (  -0.500000   0.500000   0.000000 )  

     reciprocal axes: (cart. coord. in units 2 pi/alat)
               b(1) = ( -1.000000 -1.000000  1.000000 )  
               b(2) = (  1.000000  1.000000  1.000000 )  
               b(3) = ( -1.000000  1.000000 -1.000000 )  


     PseudoPot. # 1 for Pb read from file:
     ./Pb_ONCV_PBE-1.2.upf
     MD5 check sum: 7f27c247474026287e0dbe0f3167d60b
     Pseudo is Norm-conserving, Zval = 14.0
     Generated using ONCVPSP code by D. R. Hamann
     Using radial grid of  602 points,  8 beta functions with: 
                l(1) =   0
                l(2) =   0
                l(3) =   1
                l(4) =   1
                l(5) =   2
                l(6) =   2
                l(7) =   3
                l(8) =   3

     atomic species   valence    mass     pseudopotential
        Pb            14.00   207.20000     Pb( 1.00)

     48 Sym. Ops., with inversion, found



   Cartesian axes

     site n.     atom                  positions (alat units)
         1           Pb  tau(   1) = (   0.0000000   0.0000000   0.0000000  )

     number of k points=  1872 (tetrahedron method)

     Number of k-points >= 100: set verbosity='high' to print them.

     Dense  grid:     5985 G-vectors     FFT dimensions: (  25,  25,  25)

     Estimated max dynamical RAM per process >       2.87 MB

     Estimated total dynamical RAM >       2.87 GB

     The potential is recalculated from file :
     ./_ph0/pwscf.q_6/pwscf.save/charge-density

     Starting wfcs are    0 atomic +   11 random wfcs

     Band Structure Calculation
     Davidson diagonalization with overlap

     ethr =  7.14E-11,  avg # of iterations = 21.2

     total cpu time spent up to now is       16.2 secs

     End of band structure calculation

     Number of k-points >= 100: set verbosity='high' to print the bands.

     the Fermi energy is    11.5438 ev

     Writing output data file ./_ph0/pwscf.q_6/pwscf.save/
 
     [dfpt_tetra]  Dos(E_F)[/Ry] :   0.7203969E+01

     Phonon frequency and deformation potential                                 

     bravais-lattice index     =            2
     lattice parameter (alat)  =       9.5194  a.u.
     unit-cell volume          =     215.6591 (a.u.)^3
     number of atoms/cell      =            1
     number of atomic types    =            1
     kinetic-energy cut-off    =      35.0000  Ry
     charge density cut-off    =     140.0000  Ry
     convergence threshold     =      1.0E-15
     beta                      =       0.3000
     number of iterations used =            4
     Exchange-correlation= PBE
                           (   1   4   3   4   0   0   0)


     celldm(1)=    9.51939  celldm(2)=    0.00000  celldm(3)=    0.00000
     celldm(4)=    0.00000  celldm(5)=    0.00000  celldm(6)=    0.00000

     crystal axes: (cart. coord. in units of alat)
               a(1) = ( -0.5000  0.0000  0.5000 )  
               a(2) = (  0.0000  0.5000  0.5000 )  
               a(3) = ( -0.5000  0.5000  0.0000 )  

     reciprocal axes: (cart. coord. in units 2 pi/alat)
               b(1) = ( -1.0000 -1.0000  1.0000 )  
               b(2) = (  1.0000  1.0000  1.0000 )  
               b(3) = ( -1.0000  1.0000 -1.0000 )  


     Atoms inside the unit cell: 

     Cartesian axes

     site n.  atom      mass           positions (alat units)
        1     Pb 207.2000   tau(    1) = (    0.00000    0.00000    0.00000  )

     Computing dynamical matrix for 
                    q = (   0.0833333  -0.0833333   0.2500000 )
 
      2 Sym.Ops. (no q -> -q+G )


     G cutoff =  321.3563  (    748 G-vectors)     FFT grid: ( 25, 25, 25)
     number of k points=  1872

     PseudoPot. # 1 for Pb read from file:
     ./Pb_ONCV_PBE-1.2.upf
     MD5 check sum: 7f27c247474026287e0dbe0f3167d60b
     Pseudo is Norm-conserving, Zval = 14.0
     Generated using ONCVPSP code by D. R. Hamann
     Using radial grid of  602 points,  8 beta functions with: 
                l(1) =   0
                l(2) =   0
                l(3) =   1
                l(4) =   1
                l(5) =   2
                l(6) =   2
                l(7) =   3
                l(8) =   3


     Atomic displacements:
     There are    3 irreducible representations

     Representation     1      1 modes -  To be done

     Representation     2      1 modes -  To be done

     Representation     3      1 modes -  To be done



     Alpha used in Ewald sum =   1.4000
     PHONON       :   1m 0.50s CPU   1m37.25s WALL



     Representation #   1 mode #   1

     Self-consistent Calculation

      iter #   1 total cpu time :    97.7 secs   av.it.:   5.4
      thresh= 1.000E-02 alpha_mix =  0.300 |ddv_scf|^2 =  4.133E-01

      iter #   2 total cpu time :    98.1 secs   av.it.:   6.8
      thresh= 1.000E-02 alpha_mix =  0.300 |ddv_scf|^2 =  2.060E+01

      iter #   3 total cpu time :    98.3 secs   av.it.:   6.6
      thresh= 1.000E-02 alpha_mix =  0.300 |ddv_scf|^2 =  2.305E-05

      iter #   4 total cpu time :    98.5 secs   av.it.:   6.0
      thresh= 4.801E-04 alpha_mix =  0.300 |ddv_scf|^2 =  1.846E-06

      iter #   5 total cpu time :    98.8 secs   av.it.:   5.4
      thresh= 1.359E-04 alpha_mix =  0.300 |ddv_scf|^2 =  2.596E-08

      iter #   6 total cpu time :    99.0 secs   av.it.:   7.3
      thresh= 1.611E-05 alpha_mix =  0.300 |ddv_scf|^2 =  3.854E-08

      iter #   7 total cpu time :    99.2 secs   av.it.:   3.8
      thresh= 1.963E-05 alpha_mix =  0.300 |ddv_scf|^2 =  2.989E-08

      iter #   8 total cpu time :    99.4 secs   av.it.:   5.1
      thresh= 1.729E-05 alpha_mix =  0.300 |ddv_scf|^2 =  2.906E-08

      iter #   9 total cpu time :   100.1 secs   av.it.:   3.6
      thresh= 1.705E-05 alpha_mix =  0.300 |ddv_scf|^2 =  6.584E-11

      iter #  10 total cpu time :   100.4 secs   av.it.:   7.3
      thresh= 8.114E-07 alpha_mix =  0.300 |ddv_scf|^2 =  2.647E-11

      iter #  11 total cpu time :   100.6 secs   av.it.:   6.2
      thresh= 5.145E-07 alpha_mix =  0.300 |ddv_scf|^2 =  1.204E-12

      iter #  12 total cpu time :   100.9 secs   av.it.:   7.0
      thresh= 1.097E-07 alpha_mix =  0.300 |ddv_scf|^2 =  1.655E-13

      iter #  13 total cpu time :   101.1 secs   av.it.:   6.1
      thresh= 4.068E-08 alpha_mix =  0.300 |ddv_scf|^2 =  4.246E-13

      iter #  14 total cpu time :   101.3 secs   av.it.:   4.5
      thresh= 6.516E-08 alpha_mix =  0.300 |ddv_scf|^2 =  6.672E-14

      iter #  15 total cpu time :   101.5 secs   av.it.:   6.4
      thresh= 2.583E-08 alpha_mix =  0.300 |ddv_scf|^2 =  7.192E-14

      iter #  16 total cpu time :   101.8 secs   av.it.:   5.1
      thresh= 2.682E-08 alpha_mix =  0.300 |ddv_scf|^2 =  1.598E-15

      iter #  17 total cpu time :   102.0 secs   av.it.:   7.2
      thresh= 3.998E-09 alpha_mix =  0.300 |ddv_scf|^2 =  1.826E-15

      iter #  18 total cpu time :   102.3 secs   av.it.:   5.8
      thresh= 4.273E-09 alpha_mix =  0.300 |ddv_scf|^2 =  4.896E-16

     End of self-consistent calculation

     Convergence has been achieved 


     Representation #   2 mode #   2

     Self-consistent Calculation

      iter #   1 total cpu time :   105.5 secs   av.it.:   5.1
      thresh= 1.000E-02 alpha_mix =  0.300 |ddv_scf|^2 =  1.340E-01

      iter #   2 total cpu time :   106.8 secs   av.it.:   6.1
      thresh= 1.000E-02 alpha_mix =  0.300 |ddv_scf|^2 =  6.678E+00

      iter #   3 total cpu time :   107.0 secs   av.it.:   5.9
      thresh= 1.000E-02 alpha_mix =  0.300 |ddv_scf|^2 =  1.092E-05

      iter #   4 total cpu time :   107.3 secs   av.it.:   6.6
      thresh= 3.305E-04 alpha_mix =  0.300 |ddv_scf|^2 =  5.171E-07

      iter #   5 total cpu time :   107.5 secs   av.it.:   6.1
      thresh= 7.191E-05 alpha_mix =  0.300 |ddv_scf|^2 =  4.199E-08

      iter #   6 total cpu time :   107.7 secs   av.it.:   6.9
      thresh= 2.049E-05 alpha_mix =  0.300 |ddv_scf|^2 =  7.991E-08

      iter #   7 total cpu time :   107.9 secs   av.it.:   3.4
      thresh= 2.827E-05 alpha_mix =  0.300 |ddv_scf|^2 =  5.333E-08

      iter #   8 total cpu time :   108.1 secs   av.it.:   3.9
      thresh= 2.309E-05 alpha_mix =  0.300 |ddv_scf|^2 =  4.160E-09

      iter #   9 total cpu time :   108.4 secs   av.it.:   5.4
      thresh= 6.450E-06 alpha_mix =  0.300 |ddv_scf|^2 =  4.706E-11

      iter #  10 total cpu time :   108.6 secs   av.it.:   7.2
      thresh= 6.860E-07 alpha_mix =  0.300 |ddv_scf|^2 =  2.456E-11

      iter #  11 total cpu time :   108.8 secs   av.it.:   5.3
      thresh= 4.956E-07 alpha_mix =  0.300 |ddv_scf|^2 =  3.748E-13

      iter #  12 total cpu time :   109.0 secs   av.it.:   7.0
      thresh= 6.122E-08 alpha_mix =  0.300 |ddv_scf|^2 =  8.854E-14

      iter #  13 total cpu time :   109.3 secs   av.it.:   6.3
      thresh= 2.976E-08 alpha_mix =  0.300 |ddv_scf|^2 =  1.477E-13

      iter #  14 total cpu time :   109.5 secs   av.it.:   4.4
      thresh= 3.843E-08 alpha_mix =  0.300 |ddv_scf|^2 =  1.089E-13

      iter #  15 total cpu time :   109.7 secs   av.it.:   6.0
      thresh= 3.299E-08 alpha_mix =  0.300 |ddv_scf|^2 =  4.228E-15

      iter #  16 total cpu time :   110.1 secs   av.it.:   6.6
      thresh= 6.503E-09 alpha_mix =  0.300 |ddv_scf|^2 =  8.314E-16

     End of self-consistent calculation

     Convergence has been achieved 


     Representation #   3 mode #   3

     Self-consistent Calculation

      iter #   1 total cpu time :   110.8 secs   av.it.:   4.8
      thresh= 1.000E-02 alpha_mix =  0.300 |ddv_scf|^2 =  6.799E-05

      iter #   2 total cpu time :   111.0 secs   av.it.:   5.8
      thresh= 8.246E-04 alpha_mix =  0.300 |ddv_scf|^2 =  4.143E-06

      iter #   3 total cpu time :   111.3 secs   av.it.:   6.2
      thresh= 2.036E-04 alpha_mix =  0.300 |ddv_scf|^2 =  5.963E-08

      iter #   4 total cpu time :   111.6 secs   av.it.:   6.7
      thresh= 2.442E-05 alpha_mix =  0.300 |ddv_scf|^2 =  7.038E-10

      iter #   5 total cpu time :   111.8 secs   av.it.:   6.4
      thresh= 2.653E-06 alpha_mix =  0.300 |ddv_scf|^2 =  2.457E-10

      iter #   6 total cpu time :   112.1 secs   av.it.:   6.7
      thresh= 1.568E-06 alpha_mix =  0.300 |ddv_scf|^2 =  4.312E-12

      iter #   7 total cpu time :   112.3 secs   av.it.:   7.1
[...]
      thresh= 4.257E-04 alpha_mix =  0.300 |ddv_scf|^2 =  1.057E-06

      iter #   3 total cpu time :   495.8 secs   av.it.:   7.0
      thresh= 1.028E-04 alpha_mix =  0.300 |ddv_scf|^2 =  1.581E-08

      iter #   4 total cpu time :   496.1 secs   av.it.:   7.4
      thresh= 1.258E-05 alpha_mix =  0.300 |ddv_scf|^2 =  1.774E-10

      iter #   5 total cpu time :   496.3 secs   av.it.:   6.7
      thresh= 1.332E-06 alpha_mix =  0.300 |ddv_scf|^2 =  6.308E-11

      iter #   6 total cpu time :   496.5 secs   av.it.:   7.2
      thresh= 7.942E-07 alpha_mix =  0.300 |ddv_scf|^2 =  4.380E-13

      iter #   7 total cpu time :   496.8 secs   av.it.:   7.6
      thresh= 6.618E-08 alpha_mix =  0.300 |ddv_scf|^2 =  2.824E-14

      iter #   8 total cpu time :   497.0 secs   av.it.:   7.4
      thresh= 1.680E-08 alpha_mix =  0.300 |ddv_scf|^2 =  2.686E-15

      iter #   9 total cpu time :   497.3 secs   av.it.:   6.7
      thresh= 5.182E-09 alpha_mix =  0.300 |ddv_scf|^2 =  1.047E-15

      iter #  10 total cpu time :   497.6 secs   av.it.:   7.4
      thresh= 3.235E-09 alpha_mix =  0.300 |ddv_scf|^2 =  1.014E-16

     End of self-consistent calculation

     Convergence has been achieved 
 
     Number of q in the star =    8
     List of q in the star:
          1  -0.416666667   0.416666667   0.416666667
          2   0.416666667   0.416666667   0.416666667
          3  -0.416666667  -0.416666667   0.416666667
          4   0.416666667  -0.416666667  -0.416666667
          5  -0.416666667   0.416666667  -0.416666667
          6   0.416666667   0.416666667  -0.416666667
          7   0.416666667  -0.416666667   0.416666667
          8  -0.416666667  -0.416666667  -0.416666667

     Diagonalizing the dynamical matrix

     q = (   -0.416666667   0.416666667   0.416666667 ) 

 **************************************************************************
     freq (    1) =       1.048965 [THz] =      34.989692 [cm-1]
     freq (    2) =       1.048965 [THz] =      34.989692 [cm-1]
     freq (    3) =       1.997483 [THz] =      66.628856 [cm-1]
 **************************************************************************

     Calculation of q =    0.4166667  -0.4166667   1.2500000
     [opt_tetra]  Optimized tetrahedron method is used.
 
     Parallelization info
     --------------------
     sticks:   dense  smooth     PW     G-vecs:    dense   smooth      PW
     Min          54      54     23                  747      747     204
     Max          55      55     24                  750      750     206
     Sum         433     433    187                 5985     5985    1639
 
     Using Slab Decomposition
 

     Title: 
     Phonon frequency and deformation potential                                 


     bravais-lattice index     =            2
     lattice parameter (alat)  =       9.5194  a.u.
     unit-cell volume          =     215.6591 (a.u.)^3
     number of atoms/cell      =            1
     number of atomic types    =            1
     number of electrons       =        14.00
     number of Kohn-Sham states=           11
     kinetic-energy cutoff     =      35.0000  Ry
     charge density cutoff     =     140.0000  Ry
     Exchange-correlation= PBE
                           (   1   4   3   4   0   0   0)

     celldm(1)=   9.519393  celldm(2)=   0.000000  celldm(3)=   0.000000
     celldm(4)=   0.000000  celldm(5)=   0.000000  celldm(6)=   0.000000

     crystal axes: (cart. coord. in units of alat)
               a(1) = (  -0.500000   0.000000   0.500000 )  
               a(2) = (   0.000000   0.500000   0.500000 )  
               a(3) = (  -0.500000   0.500000   0.000000 )  

     reciprocal axes: (cart. coord. in units 2 pi/alat)
               b(1) = ( -1.000000 -1.000000  1.000000 )  
               b(2) = (  1.000000  1.000000  1.000000 )  
               b(3) = ( -1.000000  1.000000 -1.000000 )  


     PseudoPot. # 1 for Pb read from file:
     ./Pb_ONCV_PBE-1.2.upf
     MD5 check sum: 7f27c247474026287e0dbe0f3167d60b
     Pseudo is Norm-conserving, Zval = 14.0
     Generated using ONCVPSP code by D. R. Hamann
     Using radial grid of  602 points,  8 beta functions with: 
                l(1) =   0
                l(2) =   0
                l(3) =   1
                l(4) =   1
                l(5) =   2
                l(6) =   2
                l(7) =   3
                l(8) =   3

     atomic species   valence    mass     pseudopotential
        Pb            14.00   207.20000     Pb( 1.00)

     48 Sym. Ops., with inversion, found



   Cartesian axes

     site n.     atom                  positions (alat units)
         1           Pb  tau(   1) = (   0.0000000   0.0000000   0.0000000  )

     number of k points=  1872 (tetrahedron method)

     Number of k-points >= 100: set verbosity='high' to print them.

     Dense  grid:     5985 G-vectors     FFT dimensions: (  25,  25,  25)

     Estimated max dynamical RAM per process >       3.01 MB

     Estimated total dynamical RAM >       3.01 GB

     The potential is recalculated from file :
     ./_ph0/pwscf.q_28/pwscf.save/charge-density

     Starting wfcs are    0 atomic +   11 random wfcs

     Band Structure Calculation
     Davidson diagonalization with overlap

     ethr =  7.14E-11,  avg # of iterations = 21.2

     total cpu time spent up to now is       72.7 secs

     End of band structure calculation

     Number of k-points >= 100: set verbosity='high' to print the bands.

     the Fermi energy is    11.5438 ev

     Writing output data file ./_ph0/pwscf.q_28/pwscf.save/
 
     [dfpt_tetra]  Dos(E_F)[/Ry] :   0.7203969E+01

     Phonon frequency and deformation potential                                 

     bravais-lattice index     =            2
     lattice parameter (alat)  =       9.5194  a.u.
     unit-cell volume          =     215.6591 (a.u.)^3
     number of atoms/cell      =            1
     number of atomic types    =            1
     kinetic-energy cut-off    =      35.0000  Ry
     charge density cut-off    =     140.0000  Ry
     convergence threshold     =      1.0E-15
     beta                      =       0.3000
     number of iterations used =            4
     Exchange-correlation= PBE
                           (   1   4   3   4   0   0   0)


     celldm(1)=    9.51939  celldm(2)=    0.00000  celldm(3)=    0.00000
     celldm(4)=    0.00000  celldm(5)=    0.00000  celldm(6)=    0.00000

     crystal axes: (cart. coord. in units of alat)
               a(1) = ( -0.5000  0.0000  0.5000 )  
               a(2) = (  0.0000  0.5000  0.5000 )  
               a(3) = ( -0.5000  0.5000  0.0000 )  

     reciprocal axes: (cart. coord. in units 2 pi/alat)
               b(1) = ( -1.0000 -1.0000  1.0000 )  
               b(2) = (  1.0000  1.0000  1.0000 )  
               b(3) = ( -1.0000  1.0000 -1.0000 )  


     Atoms inside the unit cell: 

     Cartesian axes

     site n.  atom      mass           positions (alat units)
        1     Pb 207.2000   tau(    1) = (    0.00000    0.00000    0.00000  )

     Computing dynamical matrix for 
                    q = (   0.4166667  -0.4166667   1.2500000 )
 
      2 Sym.Ops. (no q -> -q+G )


     G cutoff =  321.3563  (    749 G-vectors)     FFT grid: ( 25, 25, 25)
     number of k points=  1872

     PseudoPot. # 1 for Pb read from file:
     ./Pb_ONCV_PBE-1.2.upf
     MD5 check sum: 7f27c247474026287e0dbe0f3167d60b
     Pseudo is Norm-conserving, Zval = 14.0
     Generated using ONCVPSP code by D. R. Hamann
     Using radial grid of  602 points,  8 beta functions with: 
                l(1) =   0
                l(2) =   0
                l(3) =   1
                l(4) =   1
                l(5) =   2
                l(6) =   2
                l(7) =   3
                l(8) =   3


     Atomic displacements:
     There are    3 irreducible representations

     Representation     1      1 modes -  To be done

     Representation     2      1 modes -  To be done

     Representation     3      1 modes -  To be done



     Alpha used in Ewald sum =   1.4000
     PHONON       :   6m 8.53s CPU   8m21.81s WALL



     Representation #   1 mode #   1

     Self-consistent Calculation

      iter #   1 total cpu time :   502.1 secs   av.it.:   4.9
      thresh= 1.000E-02 alpha_mix =  0.300 |ddv_scf|^2 =  3.910E-04

      iter #   2 total cpu time :   502.5 secs   av.it.:   5.8
      thresh= 1.977E-03 alpha_mix =  0.300 |ddv_scf|^2 =  1.856E-05

      iter #   3 total cpu time :   502.7 secs   av.it.:   6.1
      thresh= 4.308E-04 alpha_mix =  0.300 |ddv_scf|^2 =  5.364E-07

      iter #   4 total cpu time :   502.9 secs   av.it.:   6.6
      thresh= 7.324E-05 alpha_mix =  0.300 |ddv_scf|^2 =  3.228E-08

      iter #   5 total cpu time :   503.2 secs   av.it.:   6.5
      thresh= 1.797E-05 alpha_mix =  0.300 |ddv_scf|^2 =  1.199E-08

      iter #   6 total cpu time :   503.5 secs   av.it.:   7.1
      thresh= 1.095E-05 alpha_mix =  0.300 |ddv_scf|^2 =  1.899E-10

      iter #   7 total cpu time :   503.7 secs   av.it.:   6.7
      thresh= 1.378E-06 alpha_mix =  0.300 |ddv_scf|^2 =  6.894E-11

      iter #   8 total cpu time :   504.0 secs   av.it.:   7.1
      thresh= 8.303E-07 alpha_mix =  0.300 |ddv_scf|^2 =  1.575E-12

      iter #   9 total cpu time :   504.2 secs   av.it.:   6.9
      thresh= 1.255E-07 alpha_mix =  0.300 |ddv_scf|^2 =  5.269E-13

      iter #  10 total cpu time :   504.4 secs   av.it.:   7.1
      thresh= 7.259E-08 alpha_mix =  0.300 |ddv_scf|^2 =  3.798E-14

      iter #  11 total cpu time :   504.7 secs   av.it.:   6.7
      thresh= 1.949E-08 alpha_mix =  0.300 |ddv_scf|^2 =  1.124E-14

      iter #  12 total cpu time :   504.9 secs   av.it.:   6.8
      thresh= 1.060E-08 alpha_mix =  0.300 |ddv_scf|^2 =  1.684E-15

      iter #  13 total cpu time :   505.2 secs   av.it.:   6.9
      thresh= 4.103E-09 alpha_mix =  0.300 |ddv_scf|^2 =  2.703E-16

     End of self-consistent calculation

     Convergence has been achieved 


     Representation #   2 mode #   2

     Self-consistent Calculation

      iter #   1 total cpu time :   505.8 secs   av.it.:   5.0
      thresh= 1.000E-02 alpha_mix =  0.300 |ddv_scf|^2 =  9.751E-04

      iter #   2 total cpu time :   506.1 secs   av.it.:   5.6
      thresh= 3.123E-03 alpha_mix =  0.300 |ddv_scf|^2 =  2.873E-05

      iter #   3 total cpu time :   506.3 secs   av.it.:   5.5
      thresh= 5.360E-04 alpha_mix =  0.300 |ddv_scf|^2 =  1.582E-07

      iter #   4 total cpu time :   506.5 secs   av.it.:   6.4
      thresh= 3.978E-05 alpha_mix =  0.300 |ddv_scf|^2 =  3.640E-08

      iter #   5 total cpu time :   506.8 secs   av.it.:   6.4
      thresh= 1.908E-05 alpha_mix =  0.300 |ddv_scf|^2 =  7.694E-09

      iter #   6 total cpu time :   507.0 secs   av.it.:   6.7
      thresh= 8.772E-06 alpha_mix =  0.300 |ddv_scf|^2 =  2.278E-10

      iter #   7 total cpu time :   507.2 secs   av.it.:   6.3
      thresh= 1.509E-06 alpha_mix =  0.300 |ddv_scf|^2 =  6.032E-11

      iter #   8 total cpu time :   507.5 secs   av.it.:   6.7
      thresh= 7.767E-07 alpha_mix =  0.300 |ddv_scf|^2 =  5.555E-12

      iter #   9 total cpu time :   507.7 secs   av.it.:   6.9
      thresh= 2.357E-07 alpha_mix =  0.300 |ddv_scf|^2 =  8.377E-13

      iter #  10 total cpu time :   508.0 secs   av.it.:   6.9
      thresh= 9.153E-08 alpha_mix =  0.300 |ddv_scf|^2 =  3.214E-14

      iter #  11 total cpu time :   508.2 secs   av.it.:   6.8
      thresh= 1.793E-08 alpha_mix =  0.300 |ddv_scf|^2 =  7.668E-15

      iter #  12 total cpu time :   508.4 secs   av.it.:   6.6
      thresh= 8.757E-09 alpha_mix =  0.300 |ddv_scf|^2 =  2.021E-15

      iter #  13 total cpu time :   508.8 secs   av.it.:   6.8
      thresh= 4.495E-09 alpha_mix =  0.300 |ddv_scf|^2 =  2.889E-16

     End of self-consistent calculation

     Convergence has been achieved 


     Representation #   3 mode #   3

     Self-consistent Calculation

      iter #   1 total cpu time :   509.6 secs   av.it.:   4.8
      thresh= 1.000E-02 alpha_mix =  0.300 |ddv_scf|^2 =  8.005E-05

      iter #   2 total cpu time :   509.8 secs   av.it.:   5.8
      thresh= 8.947E-04 alpha_mix =  0.300 |ddv_scf|^2 =  4.339E-06

      iter #   3 total cpu time :   510.1 secs   av.it.:   6.2
      thresh= 2.083E-04 alpha_mix =  0.300 |ddv_scf|^2 =  6.285E-08

      iter #   4 total cpu time :   510.3 secs   av.it.:   6.7
      thresh= 2.507E-05 alpha_mix =  0.300 |ddv_scf|^2 =  8.358E-10

      iter #   5 total cpu time :   510.6 secs   av.it.:   6.3
      thresh= 2.891E-06 alpha_mix =  0.300 |ddv_scf|^2 =  3.008E-10

      iter #   6 total cpu time :   510.8 secs   av.it.:   6.7
      thresh= 1.734E-06 alpha_mix =  0.300 |ddv_scf|^2 =  4.774E-12

      iter #   7 total cpu time :   511.1 secs   av.it.:   7.1
      thresh= 2.185E-07 alpha_mix =  0.300 |ddv_scf|^2 =  1.507E-13

      iter #   8 total cpu time :   511.3 secs   av.it.:   6.8
      thresh= 3.882E-08 alpha_mix =  0.300 |ddv_scf|^2 =  2.697E-14

      iter #   9 total cpu time :   511.5 secs   av.it.:   6.2
      thresh= 1.642E-08 alpha_mix =  0.300 |ddv_scf|^2 =  1.096E-14

      iter #  10 total cpu time :   511.9 secs   av.it.:   6.9
      thresh= 1.047E-08 alpha_mix =  0.300 |ddv_scf|^2 =  2.200E-16

     End of self-consistent calculation

     Convergence has been achieved 
 
     Number of q in the star =   24
     List of q in the star:
          1   0.416666667  -0.416666667   1.250000000
          2  -1.250000000  -0.416666667  -0.416666667
          3   0.416666667   1.250000000  -0.416666667
          4  -0.416666667  -0.416666667   1.250000000
          5   0.416666667   0.416666667   1.250000000
          6   1.250000000   0.416666667   0.416666667
          7  -1.250000000   0.416666667  -0.416666667
          8   1.250000000  -0.416666667  -0.416666667
          9  -1.250000000  -0.416666667   0.416666667
         10  -0.416666667   1.250000000  -0.416666667
         11  -0.416666667  -1.250000000   0.416666667
         12   0.416666667   1.250000000   0.416666667
         13   0.416666667  -1.250000000  -0.416666667
         14  -0.416666667   1.250000000   0.416666667
         15  -0.416666667   0.416666667   1.250000000
         16  -0.416666667  -1.250000000  -0.416666667
         17   0.416666667  -1.250000000   0.416666667
         18   1.250000000   0.416666667  -0.416666667
         19   1.250000000  -0.416666667   0.416666667
         20  -0.416666667  -0.416666667  -1.250000000
         21  -1.250000000   0.416666667   0.416666667
         22  -0.416666667   0.416666667  -1.250000000
         23   0.416666667  -0.416666667  -1.250000000
         24   0.416666667   0.416666667  -1.250000000

     Diagonalizing the dynamical matrix

     q = (    0.416666667  -0.416666667   1.250000000 ) 

 **************************************************************************
     freq (    1) =       1.176633 [THz] =      39.248236 [cm-1]
     freq (    2) =       1.364444 [THz] =      45.512940 [cm-1]
     freq (    3) =       2.067146 [THz] =      68.952557 [cm-1]
 **************************************************************************
 
     init_run     :      0.36s CPU      1.87s WALL (      28 calls)
     electrons    :     50.71s CPU     57.10s WALL (      28 calls)

     Called by init_run:
     wfcinit      :      0.00s CPU      0.55s WALL (      28 calls)
     potinit      :      0.06s CPU      0.74s WALL (      28 calls)
     hinit0       :      0.11s CPU      0.15s WALL (      28 calls)

     Called by electrons:
     c_bands      :     26.95s CPU     32.53s WALL (      28 calls)
     v_of_rho     :      0.03s CPU      0.11s WALL (      29 calls)

     Called by c_bands:
     init_us_2    :      0.57s CPU      0.61s WALL (   12293 calls)
     cegterg      :     15.28s CPU     17.88s WALL (     939 calls)

     Called by *egterg:
     cdiaghg      :      3.87s CPU      6.28s WALL (   13622 calls)
     h_psi        :     83.09s CPU     89.07s WALL (  129578 calls)
     g_psi        :      0.06s CPU      0.06s WALL (   13084 calls)

     Called by h_psi:
     h_psi:calbec :      4.28s CPU      5.47s WALL (  129578 calls)
     vloc_psi     :     75.00s CPU     79.57s WALL (  129578 calls)
     add_vuspsi   :      2.91s CPU      3.10s WALL (  129578 calls)

     General routines
     calbec       :      7.42s CPU      8.86s WALL (  250513 calls)
     fft          :      3.55s CPU      6.66s WALL (   12260 calls)
     ffts         :      0.07s CPU      0.08s WALL (    1050 calls)
     fftw         :     89.17s CPU     95.22s WALL ( 2043272 calls)
     davcio       :      1.16s CPU      2.61s WALL (   63617 calls)
 
     Parallel routines
 
     PHONON       :   6m16.77s CPU   8m33.30s WALL

     INITIALIZATION: 
     phq_setup    :     29.27s CPU     38.49s WALL (      28 calls)
     phq_init     :      2.32s CPU      4.11s WALL (      28 calls)
 
     phq_init     :      2.32s CPU      4.11s WALL (      28 calls)
     init_vloc    :      0.01s CPU      0.01s WALL (      29 calls)
     init_us_1    :      0.11s CPU      0.21s WALL (      29 calls)
 
     DYNAMICAL MATRIX:
     dynmat0      :      2.20s CPU      3.98s WALL (      28 calls)
     phqscf       :    274.27s CPU    371.36s WALL (      28 calls)
     dynmatrix    :      0.72s CPU      2.40s WALL (      28 calls)
 
     phqscf       :    274.27s CPU    371.36s WALL (      28 calls)
     solve_linter :    273.86s CPU    360.66s WALL (      81 calls)
     drhodv       :      0.27s CPU      0.31s WALL (      81 calls)
 
     dynmat0      :      2.20s CPU      3.98s WALL (      28 calls)
     dynmat_us    :      2.13s CPU      2.16s WALL (      28 calls)
     d2ionq       :      0.01s CPU      0.01s WALL (      28 calls)
 
     dynmat_us    :      2.13s CPU      2.16s WALL (      28 calls)
 
     phqscf       :    274.27s CPU    371.36s WALL (      28 calls)
     solve_linter :    273.86s CPU    360.66s WALL (      81 calls)
 
     solve_linter :    273.86s CPU    360.66s WALL (      81 calls)
     dvqpsi_us    :      1.26s CPU      1.36s WALL (     807 calls)
     ortho        :      0.72s CPU      0.76s WALL (   10509 calls)
     cgsolve      :     84.64s CPU     89.94s WALL (   10509 calls)
     incdrhoscf   :     11.10s CPU     12.26s WALL (   10509 calls)
     vpsifft      :     10.38s CPU     11.19s WALL (    9702 calls)
     dv_of_drho   :      3.75s CPU      3.79s WALL (    1078 calls)
     mix_pot      :      2.64s CPU     15.27s WALL (    1048 calls)
     psymdvscf    :      1.48s CPU      1.72s WALL (     648 calls)
 
     dvqpsi_us    :      1.26s CPU      1.36s WALL (     807 calls)
     dvqpsi_us_on :      0.39s CPU      0.41s WALL (     807 calls)
 
     cgsolve      :     84.64s CPU     89.94s WALL (   10509 calls)
     ch_psi       :     81.06s CPU     86.12s WALL (  115017 calls)
 
     ch_psi       :     81.06s CPU     86.12s WALL (  115017 calls)
     h_psi        :     83.09s CPU     89.07s WALL (  129578 calls)
     last         :      7.14s CPU      7.59s WALL (  115017 calls)
 
     h_psi        :     83.09s CPU     89.07s WALL (  129578 calls)
     add_vuspsi   :      2.91s CPU      3.10s WALL (  129578 calls)
 
     incdrhoscf   :     11.10s CPU     12.26s WALL (   10509 calls)
 
 
      General routines
     calbec       :      7.42s CPU      8.86s WALL (  250513 calls)
     fft          :      3.55s CPU      6.66s WALL (   12260 calls)
     ffts         :      0.07s CPU      0.08s WALL (    1050 calls)
     fftw         :     89.17s CPU     95.22s WALL ( 2043272 calls)
     davcio       :      1.16s CPU      2.61s WALL (   63617 calls)
     write_rec    :      8.93s CPU     81.55s WALL (    1129 calls)
 
 
     PHONON       :   6m16.77s CPU   8m33.30s WALL

 
   This run was terminated on:  10:53: 4  27Nov2023            

=------------------------------------------------------------------------------=
   JOB DONE.
=------------------------------------------------------------------------------=
