
     Program PWSCF v.6.7GPU starts on 27Nov2023 at 10:41:27 

     This program is part of the open-source Quantum ESPRESSO suite
     for quantum simulation of materials; please cite
         "P. Giannozzi et al., J. Phys.:Condens. Matter 21 395502 (2009);
         "P. Giannozzi et al., J. Phys.:Condens. Matter 29 465901 (2017);
         "P. Giannozzi et al., J. Chem. Phys. 152 154105 (2020);
          URL http://www.quantum-espresso.org", 
     in publications or presentations arising from this work. More details at
     http://www.quantum-espresso.org/quote

     Parallel version (MPI & OpenMP), running on      32 processor cores
     Number of MPI processes:                32
     Threads/MPI process:                     1

     MPI processes distributed on     1 nodes
     K-points division:     npool     =      32
     Waiting for input...
     Reading input from standard input

     Current dimensions of program PWSCF are:
     Max number of different atomic species (ntypx) = 10
     Max number of k-points (npk) =  40000
     Max angular momentum in pseudopotentials (lmaxx) =  3
     [opt_tetra]  Optimized tetrahedron method is used.

     Subspace diagonalization in iterative solution of the eigenvalue problem:
     a serial algorithm will be used

 
     G-vector sticks info
     --------------------
     sticks:   dense  smooth     PW     G-vecs:    dense   smooth      PW
     Sum         433     433    151                 5985     5985    1139
 
     Using Slab Decomposition
 


     bravais-lattice index     =            2
     lattice parameter (alat)  =       9.5194  a.u.
     unit-cell volume          =     215.6591 (a.u.)^3
     number of atoms/cell      =            1
     number of atomic types    =            1
     number of electrons       =        14.00
     number of Kohn-Sham states=           11
     kinetic-energy cutoff     =      35.0000  Ry
     charge density cutoff     =     140.0000  Ry
     scf convergence threshold =      1.0E-10
     mixing beta               =       0.3000
     number of iterations used =            8  plain     mixing
     Exchange-correlation= PBE
                           (   1   4   3   4   0   0   0)

     celldm(1)=   9.519393  celldm(2)=   0.000000  celldm(3)=   0.000000
     celldm(4)=   0.000000  celldm(5)=   0.000000  celldm(6)=   0.000000

     crystal axes: (cart. coord. in units of alat)
               a(1) = (  -0.500000   0.000000   0.500000 )  
               a(2) = (   0.000000   0.500000   0.500000 )  
               a(3) = (  -0.500000   0.500000   0.000000 )  

     reciprocal axes: (cart. coord. in units 2 pi/alat)
               b(1) = ( -1.000000 -1.000000  1.000000 )  
               b(2) = (  1.000000  1.000000  1.000000 )  
               b(3) = ( -1.000000  1.000000 -1.000000 )  


     PseudoPot. # 1 for Pb read from file:
     ./Pb_ONCV_PBE-1.2.upf
     MD5 check sum: 7f27c247474026287e0dbe0f3167d60b
     Pseudo is Norm-conserving, Zval = 14.0
     Generated using ONCVPSP code by D. R. Hamann
     Using radial grid of  602 points,  8 beta functions with: 
                l(1) =   0
                l(2) =   0
                l(3) =   1
                l(4) =   1
                l(5) =   2
                l(6) =   2
                l(7) =   3
                l(8) =   3

     atomic species   valence    mass     pseudopotential
        Pb            14.00   207.20000     Pb( 1.00)

     48 Sym. Ops., with inversion, found



   Cartesian axes

     site n.     atom                  positions (alat units)
         1           Pb  tau(   1) = (   0.0000000   0.0000000   0.0000000  )

     number of k points=    72 (tetrahedron method)
                       cart. coord. in units 2pi/alat
        k(    1) = (   0.0000000   0.0000000   0.0000000), wk =   0.0011574
        k(    2) = (  -0.0833333   0.0833333  -0.0833333), wk =   0.0092593
        k(    3) = (  -0.1666667   0.1666667  -0.1666667), wk =   0.0092593
        k(    4) = (  -0.2500000   0.2500000  -0.2500000), wk =   0.0092593
        k(    5) = (  -0.3333333   0.3333333  -0.3333333), wk =   0.0092593
        k(    6) = (  -0.4166667   0.4166667  -0.4166667), wk =   0.0092593
        k(    7) = (   0.5000000  -0.5000000   0.5000000), wk =   0.0046296
        k(    8) = (   0.0000000   0.1666667   0.0000000), wk =   0.0069444
        k(    9) = (  -0.0833333   0.2500000  -0.0833333), wk =   0.0277778
        k(   10) = (  -0.1666667   0.3333333  -0.1666667), wk =   0.0277778
        k(   11) = (  -0.2500000   0.4166667  -0.2500000), wk =   0.0277778
        k(   12) = (  -0.3333333   0.5000000  -0.3333333), wk =   0.0277778
        k(   13) = (   0.5833333  -0.4166667   0.5833333), wk =   0.0277778
        k(   14) = (   0.5000000  -0.3333333   0.5000000), wk =   0.0277778
        k(   15) = (   0.4166667  -0.2500000   0.4166667), wk =   0.0277778
        k(   16) = (   0.3333333  -0.1666667   0.3333333), wk =   0.0277778
        k(   17) = (   0.2500000  -0.0833333   0.2500000), wk =   0.0277778
        k(   18) = (   0.1666667  -0.0000000   0.1666667), wk =   0.0138889
        k(   19) = (   0.0000000   0.3333333   0.0000000), wk =   0.0069444
        k(   20) = (  -0.0833333   0.4166667  -0.0833333), wk =   0.0277778
        k(   21) = (  -0.1666667   0.5000000  -0.1666667), wk =   0.0277778
        k(   22) = (  -0.2500000   0.5833333  -0.2500000), wk =   0.0277778
        k(   23) = (   0.6666667  -0.3333333   0.6666667), wk =   0.0277778
        k(   24) = (   0.5833333  -0.2500000   0.5833333), wk =   0.0277778
        k(   25) = (   0.5000000  -0.1666667   0.5000000), wk =   0.0277778
        k(   26) = (   0.4166667  -0.0833333   0.4166667), wk =   0.0277778
        k(   27) = (   0.3333333   0.0000000   0.3333333), wk =   0.0138889
        k(   28) = (   0.0000000   0.5000000   0.0000000), wk =   0.0069444
        k(   29) = (  -0.0833333   0.5833333  -0.0833333), wk =   0.0277778
        k(   30) = (  -0.1666667   0.6666667  -0.1666667), wk =   0.0277778
        k(   31) = (   0.7500000  -0.2500000   0.7500000), wk =   0.0277778
        k(   32) = (   0.6666667  -0.1666667   0.6666667), wk =   0.0277778
        k(   33) = (   0.5833333  -0.0833333   0.5833333), wk =   0.0277778
        k(   34) = (   0.5000000   0.0000000   0.5000000), wk =   0.0138889
        k(   35) = (   0.0000000   0.6666667   0.0000000), wk =   0.0069444
        k(   36) = (  -0.0833333   0.7500000  -0.0833333), wk =   0.0277778
        k(   37) = (   0.8333333  -0.1666667   0.8333333), wk =   0.0277778
        k(   38) = (   0.7500000  -0.0833333   0.7500000), wk =   0.0277778
        k(   39) = (   0.6666667   0.0000000   0.6666667), wk =   0.0138889
        k(   40) = (   0.0000000   0.8333333   0.0000000), wk =   0.0069444
        k(   41) = (   0.9166667  -0.0833333   0.9166667), wk =   0.0277778
        k(   42) = (   0.8333333   0.0000000   0.8333333), wk =   0.0138889
        k(   43) = (   0.0000000  -1.0000000   0.0000000), wk =   0.0034722
        k(   44) = (  -0.1666667   0.3333333   0.0000000), wk =   0.0277778
        k(   45) = (  -0.2500000   0.4166667  -0.0833333), wk =   0.0555556
        k(   46) = (  -0.3333333   0.5000000  -0.1666667), wk =   0.0555556
        k(   47) = (   0.5833333  -0.4166667   0.7500000), wk =   0.0555556
        k(   48) = (   0.5000000  -0.3333333   0.6666667), wk =   0.0277778
        k(   49) = (  -0.1666667   0.5000000   0.0000000), wk =   0.0277778
        k(   50) = (  -0.2500000   0.5833333  -0.0833333), wk =   0.0555556
        k(   51) = (   0.6666667  -0.3333333   0.8333333), wk =   0.0555556
        k(   52) = (   0.5833333  -0.2500000   0.7500000), wk =   0.0555556
        k(   53) = (   0.5000000  -0.1666667   0.6666667), wk =   0.0555556
        k(   54) = (   0.4166667  -0.0833333   0.5833333), wk =   0.0555556
        k(   55) = (   0.3333333   0.0000000   0.5000000), wk =   0.0277778
        k(   56) = (  -0.1666667   0.6666667  -0.0000000), wk =   0.0277778
        k(   57) = (   0.7500000  -0.2500000   0.9166667), wk =   0.0555556
        k(   58) = (   0.6666667  -0.1666667   0.8333333), wk =   0.0555556
        k(   59) = (   0.5833333  -0.0833333   0.7500000), wk =   0.0555556
        k(   60) = (   0.5000000   0.0000000   0.6666667), wk =   0.0277778
        k(   61) = (   0.8333333  -0.1666667   1.0000000), wk =   0.0277778
        k(   62) = (   0.7500000  -0.0833333   0.9166667), wk =   0.0555556
        k(   63) = (   0.6666667   0.0000000   0.8333333), wk =   0.0277778
        k(   64) = (  -0.1666667  -1.0000000   0.0000000), wk =   0.0138889
        k(   65) = (   0.6666667  -0.3333333   1.0000000), wk =   0.0277778
        k(   66) = (   0.5833333  -0.2500000   0.9166667), wk =   0.0555556
        k(   67) = (   0.5000000  -0.1666667   0.8333333), wk =   0.0277778
        k(   68) = (   0.6666667  -0.1666667   1.0000000), wk =   0.0277778
        k(   69) = (   0.5833333  -0.0833333   0.9166667), wk =   0.0555556
        k(   70) = (   0.5000000   0.0000000   0.8333333), wk =   0.0277778
        k(   71) = (  -0.3333333  -1.0000000   0.0000000), wk =   0.0138889
        k(   72) = (  -0.5000000  -1.0000000   0.0000000), wk =   0.0069444

     Dense  grid:     5985 G-vectors     FFT dimensions: (  25,  25,  25)

     Estimated max dynamical RAM per process >       7.25 MB

     Estimated total dynamical RAM >     186.76 MB

     Initial potential from superposition of free atoms

     starting charge   13.89795, renormalised to   14.00000
     Starting wfcs are random

     total cpu time spent up to now is        9.0 secs

     Self-consistent Calculation

     iteration #  1     ecut=    35.00 Ry     beta= 0.30
     Davidson diagonalization with overlap
     ethr =  1.00E-02,  avg # of iterations =  7.5

     Threshold (ethr) on eigenvalues was too large:
     Diagonalizing with lowered threshold

     Davidson diagonalization with overlap
     ethr =  9.11E-05,  avg # of iterations =  4.2

     total cpu time spent up to now is       11.2 secs

     total energy              =    -112.89570969 Ry
     estimated scf accuracy    <       0.00831442 Ry

     iteration #  2     ecut=    35.00 Ry     beta= 0.30
     Davidson diagonalization with overlap
     ethr =  5.94E-05,  avg # of iterations =  1.0

     total cpu time spent up to now is       12.0 secs

     total energy              =    -112.89502924 Ry
     estimated scf accuracy    <       0.00215834 Ry

     iteration #  3     ecut=    35.00 Ry     beta= 0.30
     Davidson diagonalization with overlap
     ethr =  1.54E-05,  avg # of iterations =  2.3

     total cpu time spent up to now is       12.6 secs

     total energy              =    -112.89542826 Ry
     estimated scf accuracy    <       0.00008079 Ry

     iteration #  4     ecut=    35.00 Ry     beta= 0.30
     Davidson diagonalization with overlap
     ethr =  5.77E-07,  avg # of iterations =  2.8

     total cpu time spent up to now is       13.3 secs

     total energy              =    -112.89543025 Ry
     estimated scf accuracy    <       0.00000446 Ry

     iteration #  5     ecut=    35.00 Ry     beta= 0.30
     Davidson diagonalization with overlap
     ethr =  3.19E-08,  avg # of iterations =  1.9

     total cpu time spent up to now is       13.8 secs

     total energy              =    -112.89543086 Ry
     estimated scf accuracy    <       0.00000010 Ry

     iteration #  6     ecut=    35.00 Ry     beta= 0.30
     Davidson diagonalization with overlap
     ethr =  7.28E-10,  avg # of iterations =  2.0

     total cpu time spent up to now is       14.4 secs

     total energy              =    -112.89543087 Ry
     estimated scf accuracy    <       0.00000011 Ry

     iteration #  7     ecut=    35.00 Ry     beta= 0.30
     Davidson diagonalization with overlap
     ethr =  7.28E-10,  avg # of iterations =  2.2

     total cpu time spent up to now is       15.0 secs

     End of self-consistent calculation

          k = 0.0000 0.0000 0.0000 (   749 PWs)   bands (ev):

    -5.5349  -5.5349  -5.5349  -5.4160  -5.4160   0.1040  18.5185  18.5185
    18.5185  21.2366  22.1854

          k =-0.0833 0.0833-0.0833 (   737 PWs)   bands (ev):

    -5.5348  -5.5264  -5.5264  -5.4164  -5.4164   0.2304  17.0625  18.3636
    18.3636  20.8971  22.9137

          k =-0.1667 0.1667-0.1667 (   761 PWs)   bands (ev):

    -5.5357  -5.5097  -5.5097  -5.4109  -5.4109   0.6086  14.6061  17.9883
    17.9883  20.5033  23.8842

          k =-0.2500 0.2500-0.2500 (   757 PWs)   bands (ev):

    -5.5391  -5.5044  -5.5044  -5.3853  -5.3853   1.2303  12.1854  17.5486
    17.5486  20.2636  22.7742

          k =-0.3333 0.3333-0.3333 (   769 PWs)   bands (ev):

    -5.5449  -5.5122  -5.5122  -5.3459  -5.3459   2.0577  10.0232  17.1603
    17.1603  20.1979  21.8382

          k =-0.4167 0.4167-0.4167 (   763 PWs)   bands (ev):

    -5.5505  -5.5213  -5.5213  -5.3132  -5.3132   2.9511   8.3148  16.8978
    16.8978  20.3067  21.1290

          k = 0.5000-0.5000 0.5000 (   754 PWs)   bands (ev):

    -5.5528  -5.5251  -5.5251  -5.3008  -5.3008   3.4288   7.5635  16.8052
    16.8052  20.5230  20.7133

          k = 0.0000 0.1667 0.0000 (   745 PWs)   bands (ev):

    -5.5441  -5.5182  -5.5182  -5.4256  -5.4090   0.2725  17.4412  17.8441
    17.8441  20.6364  23.2192

          k =-0.0833 0.2500-0.0833 (   755 PWs)   bands (ev):

    -5.5490  -5.5006  -5.4989  -5.4327  -5.3995   0.5668  15.4089  17.2713
    17.7074  20.5771  22.5320

          k =-0.1667 0.3333-0.1667 (   757 PWs)   bands (ev):

    -5.5487  -5.4944  -5.4880  -5.4206  -5.3756   1.1080  13.0135  16.7841
    17.2812  20.5991  22.1297

          k =-0.2500 0.4167-0.2500 (   762 PWs)   bands (ev):

    -5.5482  -5.5045  -5.4926  -5.3852  -5.3393   1.8708  10.7865  16.4570
    16.7292  20.2058  22.0828

          k =-0.3333 0.5000-0.3333 (   757 PWs)   bands (ev):

    -5.5483  -5.5166  -5.5027  -5.3463  -5.3094   2.7630   8.9216  16.2002
    16.3333  19.9382  21.8494

          k = 0.5833-0.4167 0.5833 (   755 PWs)   bands (ev):

    -5.5468  -5.5240  -5.5101  -5.3189  -5.2999   3.4530   7.7852  15.7914
    16.4348  19.9280  21.5518

          k = 0.5000-0.3333 0.5000 (   760 PWs)   bands (ev):

    -5.5428  -5.5240  -5.5106  -5.3157  -5.3118   3.2850   8.0445  15.5672
    16.7590  20.1691  21.3300

          k = 0.4167-0.2500 0.4167 (   760 PWs)   bands (ev):

    -5.5392  -5.5156  -5.5040  -5.3524  -5.3261   2.4619   9.4931  15.5586
    17.2684  20.6080  21.2892

          k = 0.3333-0.1667 0.3333 (   766 PWs)   bands (ev):

    -5.5376  -5.5042  -5.4948  -5.3970  -5.3555   1.5945  11.4987  15.7739
    17.8718  20.9672  21.7057

          k = 0.2500-0.0833 0.2500 (   760 PWs)   bands (ev):

    -5.5379  -5.4996  -5.4968  -5.4260  -5.3865   0.9008  13.7743  16.2221
    18.3969  21.1011  22.6456

          k = 0.1667-0.0000 0.1667 (   753 PWs)   bands (ev):

    -5.5378  -5.5159  -5.5098  -5.4254  -5.4063   0.4408  15.9282  17.0621
    18.6019  21.0188  23.0504

          k = 0.0000 0.3333 0.0000 (   769 PWs)   bands (ev):

    -5.5693  -5.4719  -5.4719  -5.4537  -5.3898   0.7765  15.5706  16.5535
    16.5535  19.7249  21.1272

          k =-0.0833 0.4167-0.0833 (   752 PWs)   bands (ev):

    -5.5781  -5.4770  -5.4503  -5.4370  -5.3698   1.2339  13.7600  15.9765
    16.1288  19.7098  20.4126

          k =-0.1667 0.5000-0.1667 (   761 PWs)   bands (ev):

    -5.5753  -5.4928  -5.4496  -5.4074  -5.3349   1.9196  11.6438  15.4415
    15.6082  19.2647  21.4734

          k =-0.2500 0.5833-0.2500 (   759 PWs)   bands (ev):

    -5.5680  -5.4992  -5.4590  -5.3820  -5.3056   2.7674   9.7497  14.6867
    15.4865  18.9765  23.0419

          k = 0.6667-0.3333 0.6667 (   752 PWs)   bands (ev):

    -5.5602  -5.4988  -5.4688  -5.3605  -5.2975   3.5525   8.3938  14.0495
    15.6299  18.9659  23.3672

          k = 0.5833-0.2500 0.5833 (   755 PWs)   bands (ev):

    -5.5490  -5.5000  -5.4737  -5.3446  -5.3157   3.7000   8.1770  13.6215
    16.0359  19.2118  22.9869

          k = 0.5000-0.1667 0.5000 (   757 PWs)   bands (ev):

    -5.5332  -5.5068  -5.4714  -5.3558  -5.3383   3.0429   9.2601  13.4574
    16.6719  19.7045  22.7199

          k = 0.4167-0.0833 0.4167 (   751 PWs)   bands (ev):

    -5.5210  -5.5134  -5.4625  -5.4068  -5.3442   2.1811  10.9816  13.6244
    17.4497  20.4428  22.5394

          k = 0.3333 0.0000 0.3333 (   759 PWs)   bands (ev):

    -5.5319  -5.5016  -5.4649  -5.4392  -5.3618   1.4349  12.7063  14.4007
    18.1572  21.4222  22.0934

          k = 0.0000 0.5000 0.0000 (   769 PWs)   bands (ev):

    -5.6036  -5.4962  -5.4071  -5.4071  -5.3634   1.6059  13.5150  15.3089
    15.3089  18.9695  19.0615

          k =-0.0833 0.5833-0.0833 (   751 PWs)   bands (ev):

    -5.6117  -5.5158  -5.3937  -5.3779  -5.3342   2.2077  12.0840  14.5174
    14.8634  18.4704  19.3996

          k =-0.1667 0.6667-0.1667 (   760 PWs)   bands (ev):

    -5.6033  -5.5200  -5.4013  -5.3649  -5.3028   2.9853  10.4880  13.4442
    14.6825  18.2188  20.8745

          k = 0.7500-0.2500 0.7500 (   758 PWs)   bands (ev):

    -5.5891  -5.5004  -5.4121  -5.3699  -5.2938   3.7731   9.1861  12.5009
    14.7861  18.2150  22.8085

          k = 0.6667-0.1667 0.6667 (   759 PWs)   bands (ev):

    -5.5735  -5.4670  -5.4209  -5.3849  -5.3120   4.1348   8.7023  11.8311
    15.1723  18.4375  24.8536

          k = 0.5833-0.0833 0.5833 (   753 PWs)   bands (ev):

    -5.5543  -5.4608  -5.4255  -5.3805  -5.3522   3.7195   9.3681  11.5319
    15.8121  18.8825  24.5588

          k = 0.5000 0.0000 0.5000 (   754 PWs)   bands (ev):

    -5.5330  -5.4895  -5.4299  -5.3977  -5.3556   2.9380  10.4233  11.9726
    16.6307  19.5526  24.0086

          k = 0.0000 0.6667 0.0000 (   749 PWs)   bands (ev):

    -5.6377  -5.5428  -5.3403  -5.3403  -5.3370   2.7208  11.3780  14.3322
    14.3322  17.7056  18.4309

          k =-0.0833 0.7500-0.0833 (   756 PWs)   bands (ev):

    -5.6409  -5.5565  -5.3458  -5.3209  -5.3007   3.4077  10.2952  13.3713
    14.0689  17.5913  18.8953

          k = 0.8333-0.1667 0.8333 (   755 PWs)   bands (ev):

    -5.6245  -5.5466  -5.3561  -5.3271  -5.2883   4.1228   9.4483  11.9733
    14.0984  17.6600  20.4886

          k = 0.7500-0.0833 0.7500 (   747 PWs)   bands (ev):

    -5.6024  -5.5051  -5.3685  -5.3577  -5.3031   4.5279   9.2491  10.7510
    14.4222  17.8708  22.5703

          k = 0.6667 0.0000 0.6667 (   740 PWs)   bands (ev):

    -5.5790  -5.4440  -5.4046  -5.3875  -5.3332   4.3219   9.8029  10.0795
    15.0147  18.2728  24.8804

          k = 0.0000 0.8333 0.0000 (   753 PWs)   bands (ev):

    -5.6626  -5.5791  -5.3175  -5.2902  -5.2902   3.9752   9.4322  13.7159
    13.7159  16.9734  18.1115

          k = 0.9167-0.0833 0.9167 (   751 PWs)   bands (ev):

    -5.6576  -5.5815  -5.3200  -5.2868  -5.2787   4.5176   8.8126  12.8238
    13.6571  17.1804  18.6553

          k = 0.8333 0.0000 0.8333 (   746 PWs)   bands (ev):

    -5.6324  -5.5570  -5.3346  -5.3124  -5.2878   4.7309   8.8672  11.4725
    13.8992  17.4845  20.3585

          k = 0.0000-1.0000 0.0000 (   740 PWs)   bands (ev):

    -5.6717  -5.5929  -5.3103  -5.2715  -5.2715   4.7159   8.4476  13.5055
    13.5055  16.7443  18.0059

          k =-0.1667 0.3333 0.0000 (   764 PWs)   bands (ev):

    -5.5553  -5.4874  -5.4742  -5.4426  -5.3818   0.9428  14.2454  15.7403
    17.7075  20.6884  21.5007

          k =-0.2500 0.4167-0.0833 (   760 PWs)   bands (ev):

    -5.5518  -5.4941  -5.4632  -5.4256  -5.3541   1.5574  12.2949  14.8979
    17.2481  20.5733  21.7574

          k =-0.3333 0.5000-0.1667 (   757 PWs)   bands (ev):

    -5.5450  -5.5084  -5.4705  -5.3867  -5.3265   2.3679  10.2851  14.5340
    16.5715  20.1559  22.1505

          k = 0.5833-0.4167 0.7500 (   756 PWs)   bands (ev):

    -5.5390  -5.5219  -5.4764  -5.3532  -5.3094   3.2289   8.6639  14.4016
    16.0158  19.9283  21.8806

          k = 0.5000-0.3333 0.6667 (   752 PWs)   bands (ev):

    -5.5328  -5.5315  -5.4782  -5.3388  -5.3050   3.6786   7.9564  14.3825
    15.7954  19.8578  21.7532

          k =-0.1667 0.5000 0.0000 (   755 PWs)   bands (ev):

    -5.5856  -5.4936  -5.4320  -5.4091  -5.3478   1.7643  12.6660  14.5266
    15.9215  19.7135  19.9824

          k =-0.2500 0.5833-0.0833 (   756 PWs)   bands (ev):

    -5.5775  -5.5055  -5.4339  -5.3817  -5.3230   2.5001  11.0556  13.6873
    15.2747  19.4602  21.2165

          k = 0.6667-0.3333 0.8333 (   750 PWs)   bands (ev):

    -5.5646  -5.5047  -5.4371  -5.3732  -5.3054   3.3354   9.4830  13.1855
    14.7921  19.3802  22.8019

          k = 0.5833-0.2500 0.7500 (   751 PWs)   bands (ev):

    -5.5535  -5.4999  -5.4318  -5.3781  -5.3040   3.9445   8.5266  12.7719
    14.7543  19.5081  22.8195

          k = 0.5000-0.1667 0.6667 (   752 PWs)   bands (ev):

    -5.5403  -5.5037  -5.4323  -5.3761  -5.3204   3.7876   8.7805  12.5033
    15.1294  19.8299  22.5390

          k = 0.4167-0.0833 0.5833 (   758 PWs)   bands (ev):

    -5.5241  -5.5175  -5.4415  -5.3789  -5.3380   3.0410  10.0221  12.5303
    15.7992  20.3058  22.4293

          k = 0.3333 0.0000 0.5000 (   756 PWs)   bands (ev):

    -5.5385  -5.5066  -5.4441  -5.4117  -5.3413   2.2252  11.4198  13.1917
    16.6180  20.7701  21.9948

          k =-0.1667 0.6667-0.0000 (   754 PWs)   bands (ev):

    -5.6164  -5.5328  -5.3864  -5.3414  -5.3178   2.8570  11.0762  13.5864
    14.2512  18.6092  19.4148

          k = 0.7500-0.2500 0.9167 (   755 PWs)   bands (ev):

    -5.6013  -5.5326  -5.3939  -5.3341  -5.3012   3.6230   9.9941  12.5017
    13.8034  18.7830  20.7370

          k = 0.6667-0.1667 0.8333 (   750 PWs)   bands (ev):

    -5.5820  -5.5045  -5.4042  -5.3597  -5.2959   4.2603   9.2303  11.5103
    13.8492  18.9494  22.7078

          k = 0.5833-0.0833 0.7500 (   745 PWs)   bands (ev):

    -5.5639  -5.4633  -5.4179  -5.3899  -5.3132   4.3285   9.2877  10.8693
    14.2559  19.2892  24.1996

          k = 0.5000 0.0000 0.6667 (   753 PWs)   bands (ev):

    -5.5437  -5.4762  -5.4287  -5.3740  -5.3452   3.7828   9.8600  11.0338
    14.9402  19.7970  23.8909

          k = 0.8333-0.1667 1.0000 (   753 PWs)   bands (ev):

    -5.6389  -5.5656  -5.3438  -5.3019  -5.2905   4.0591   9.4944  12.9947
    13.2294  18.0109  19.0680

          k = 0.7500-0.0833 0.9167 (   749 PWs)   bands (ev):

    -5.6154  -5.5515  -5.3537  -5.3276  -5.2808   4.5850   9.1256  11.6550
    13.2041  18.4617  20.4851

          k = 0.6667 0.0000 0.8333 (   745 PWs)   bands (ev):

    -5.5888  -5.5060  -5.3814  -5.3631  -5.2928   4.6750   9.4784  10.4402
    13.5894  18.8095  22.6027

          k =-0.1667-1.0000 0.0000 (   754 PWs)   bands (ev):

    -5.6471  -5.5782  -5.3229  -5.3008  -5.2715   4.7387   8.6582  12.7928
    12.9057  17.8205  18.9524

          k = 0.6667-0.3333 1.0000 (   752 PWs)   bands (ev):

    -5.5574  -5.5173  -5.4344  -5.3440  -5.3314   3.2399  10.4078  12.2635
    14.4393  20.4273  21.4556

          k = 0.5833-0.2500 0.9167 (   749 PWs)   bands (ev):

    -5.5364  -5.5135  -5.4336  -5.3632  -5.3111   3.9795   9.5328  11.6373
    13.7530  20.6348  22.5104

          k = 0.5000-0.1667 0.8333 (   748 PWs)   bands (ev):

    -5.5356  -5.5001  -5.4224  -5.3904  -5.2997   4.3352   9.0633  11.5154
    13.4903  20.6485  22.5107

          k = 0.6667-0.1667 1.0000 (   748 PWs)   bands (ev):

    -5.5727  -5.5351  -5.4043  -5.3383  -5.2913   4.2734   9.6389  11.6820
    12.7545  20.1263  21.0908

          k = 0.5833-0.0833 0.9167 (   747 PWs)   bands (ev):

    -5.5465  -5.5069  -5.4297  -5.3687  -5.2813   4.6559   9.6385  10.7718
    12.5147  20.6701  22.7818

          k = 0.5000 0.0000 0.8333 (   751 PWs)   bands (ev):

    -5.5347  -5.4790  -5.4573  -5.3759  -5.2923   4.5154   9.8791  10.4449
    12.9300  20.9837  23.5209

          k =-0.3333-1.0000 0.0000 (   750 PWs)   bands (ev):

    -5.5784  -5.5432  -5.3788  -5.3538  -5.2715   4.7860   9.2732  11.4840
    12.1233  20.0129  20.9665

          k =-0.5000-1.0000 0.0000 (   744 PWs)   bands (ev):

    -5.5203  -5.4810  -5.4810  -5.3747  -5.2715   4.8106  10.2442  10.2442
    11.8218  21.9726  23.3896

     the Fermi energy is    11.5438 ev

!    total energy              =    -112.89543089 Ry
     estimated scf accuracy    <          9.1E-11 Ry

     The total energy is the sum of the following terms:
     one-electron contribution =     -25.07766781 Ry
     hartree contribution      =      20.59380383 Ry
     xc contribution           =     -14.01133131 Ry
     ewald contribution        =     -94.40023560 Ry

     convergence has been achieved in   7 iterations

     Writing output data file ./pwscf.save/
 
     init_run     :      0.04s CPU      4.11s WALL (       1 calls)
     electrons    :      4.88s CPU      6.07s WALL (       1 calls)

     Called by init_run:
     wfcinit      :      0.01s CPU      3.10s WALL (       1 calls)
     potinit      :      0.01s CPU      0.11s WALL (       1 calls)
     hinit0       :      0.02s CPU      0.77s WALL (       1 calls)

     Called by electrons:
     c_bands      :      0.38s CPU      1.16s WALL (       8 calls)
     sum_band     :      4.42s CPU      4.47s WALL (       8 calls)
     v_of_rho     :      0.03s CPU      0.10s WALL (       8 calls)
     mix_rho      :      0.00s CPU      0.25s WALL (       8 calls)

     Called by c_bands:
     init_us_2    :      0.01s CPU      0.01s WALL (      51 calls)
     cegterg      :      0.28s CPU      1.07s WALL (      24 calls)

     Called by *egterg:
     cdiaghg      :      0.01s CPU      3.34s WALL (     103 calls)
     h_psi        :      0.25s CPU      0.60s WALL (     109 calls)
     g_psi        :      0.00s CPU      0.00s WALL (      82 calls)

     Called by h_psi:
     h_psi:calbec :      0.01s CPU      0.35s WALL (     109 calls)
     vloc_psi     :      0.23s CPU      0.24s WALL (     109 calls)
     add_vuspsi   :      0.01s CPU      0.01s WALL (     109 calls)

     General routines
     calbec       :      0.01s CPU      0.35s WALL (     109 calls)
     fft          :      0.01s CPU      0.78s WALL (      80 calls)
     ffts         :      0.00s CPU      0.00s WALL (       8 calls)
     fftw         :      0.25s CPU      0.26s WALL (    1960 calls)
 
     Parallel routines
 
     PWSCF        :      5.90s CPU     15.10s WALL

 
   This run was terminated on:  10:41:42  27Nov2023            

=------------------------------------------------------------------------------=
   JOB DONE.
=------------------------------------------------------------------------------=
